 Entering Gaussian System, Link 0=g09
 Input=zn.com
 Output=zn.log
 Initial command:
 /WORK/paratera_43/g09/l1.exe "/WORK/paratera_43/work/3max/vxvy/Gau-29922.inp" -scrdir="/WORK/paratera_43/work/3max/vxvy/"
 Default is to use a total of  24 processors:
                               24 via shared-memory
                                1 via Linda
 Entering Link 1 = /WORK/paratera_43/g09/l1.exe PID=     29923.
  
 Copyright (c) 1988,1990,1992,1993,1995,1998,2003,2009,2015,
            Gaussian, Inc.  All Rights Reserved.
  
 This is part of the Gaussian(R) 09 program.  It is based on
 the Gaussian(R) 03 system (copyright 2003, Gaussian, Inc.),
 the Gaussian(R) 98 system (copyright 1998, Gaussian, Inc.),
 the Gaussian(R) 94 system (copyright 1995, Gaussian, Inc.),
 the Gaussian 92(TM) system (copyright 1992, Gaussian, Inc.),
 the Gaussian 90(TM) system (copyright 1990, Gaussian, Inc.),
 the Gaussian 88(TM) system (copyright 1988, Gaussian, Inc.),
 the Gaussian 86(TM) system (copyright 1986, Carnegie Mellon
 University), and the Gaussian 82(TM) system (copyright 1983,
 Carnegie Mellon University). Gaussian is a federally registered
 trademark of Gaussian, Inc.
  
 This software contains proprietary and confidential information,
 including trade secrets, belonging to Gaussian, Inc.
  
 This software is provided under written license and may be
 used, copied, transmitted, or stored only in accord with that
 written license.
  
 The following legend is applicable only to US Government
 contracts under FAR:
  
                    RESTRICTED RIGHTS LEGEND
  
 Use, reproduction and disclosure by the US Government is
 subject to restrictions as set forth in subparagraphs (a)
 and (c) of the Commercial Computer Software - Restricted
 Rights clause in FAR 52.227-19.
  
 Gaussian, Inc.
 340 Quinnipiac St., Bldg. 40, Wallingford CT 06492
  
  
 ---------------------------------------------------------------
 Warning -- This program may not be used in any manner that
 competes with the business of Gaussian, Inc. or will provide
 assistance to any competitor of Gaussian, Inc.  The licensee
 of this program is prohibited from giving any competitor of
 Gaussian, Inc. access to this program.  By using this program,
 the user acknowledges that Gaussian, Inc. is engaged in the
 business of creating and licensing software in the field of
 computational chemistry and represents and warrants to the
 licensee that it is not a competitor of Gaussian, Inc. and that
 it will not use this program in any manner prohibited above.
 ---------------------------------------------------------------
  

 Cite this work as:
 Gaussian 09, Revision E.01,
 M. J. Frisch, G. W. Trucks, H. B. Schlegel, G. E. Scuseria, 
 M. A. Robb, J. R. Cheeseman, G. Scalmani, V. Barone, B. Mennucci, 
 G. A. Petersson, H. Nakatsuji, M. Caricato, X. Li, H. P. Hratchian, 
 A. F. Izmaylov, J. Bloino, G. Zheng, J. L. Sonnenberg, M. Hada, 
 M. Ehara, K. Toyota, R. Fukuda, J. Hasegawa, M. Ishida, T. Nakajima, 
 Y. Honda, O. Kitao, H. Nakai, T. Vreven, J. A. Montgomery, Jr., 
 J. E. Peralta, F. Ogliaro, M. Bearpark, J. J. Heyd, E. Brothers, 
 K. N. Kudin, V. N. Staroverov, T. Keith, R. Kobayashi, J. Normand, 
 K. Raghavachari, A. Rendell, J. C. Burant, S. S. Iyengar, J. Tomasi, 
 M. Cossi, N. Rega, J. M. Millam, M. Klene, J. E. Knox, J. B. Cross, 
 V. Bakken, C. Adamo, J. Jaramillo, R. Gomperts, R. E. Stratmann, 
 O. Yazyev, A. J. Austin, R. Cammi, C. Pomelli, J. W. Ochterski, 
 R. L. Martin, K. Morokuma, V. G. Zakrzewski, G. A. Voth, 
 P. Salvador, J. J. Dannenberg, S. Dapprich, A. D. Daniels, 
 O. Farkas, J. B. Foresman, J. V. Ortiz, J. Cioslowski, 
 and D. J. Fox, Gaussian, Inc., Wallingford CT, 2013.
 
 ******************************************
 Gaussian 09:  ES64L-G09RevE.01 30-Nov-2015
                13-Jan-2022 
 ******************************************
 %chk=LLK_Zn.chk
 --------------------------------
 # opt=readopt apfd/6-311+g(2d,p)
 --------------------------------
 1/14=-1,18=20,19=15,26=3,29=6000,38=1/1,3;
 2/9=110,12=2,17=6,18=5,40=1/2;
 3/5=4,6=6,7=112,11=2,16=1,25=1,30=1,71=1,74=-44/1,2,3;
 4//1;
 5/5=2,38=5/2;
 6/7=2,8=2,9=2,10=2,28=1/1;
 7//1,2,3,16;
 1/14=-1,18=20,19=15,26=3/3(2);
 2/9=110/2;
 99//99;
 2/9=110/2;
 3/5=4,6=6,7=112,11=2,16=1,25=1,30=1,71=1,74=-44/1,2,3;
 4/5=5,16=3,69=1/1;
 5/5=2,38=5/2;
 7//1,2,3,16;
 1/14=-1,18=20,19=15,26=3/3(-5);
 2/9=110/2;
 6/7=2,8=2,9=2,10=2,19=2,28=1/1;
 99/9=1/99;
 ------
 3MAX_P
 ------
 Symbolic Z-matrix:
 Charge =  2 Multiplicity = 1
 Zn(PDBName=ZN,ResName=ZN,ResNum=379_A)  65.265    30.539   -2.877 
 N(PDBName=N1,ResName=LLX,ResNum=400_A)  65.881    28.888   -1.678 
 C(PDBName=C2,ResName=LLX,ResNum=400_A)  65.449    28.733   -0.343 
 C(PDBName=C3,ResName=LLX,ResNum=400_A)  64.221    28.125   -0.069 
 C(PDBName=C4,ResName=LLX,ResNum=400_A)  63.789    27.979    1.241 
 C(PDBName=C5,ResName=LLX,ResNum=400_A)  64.566    28.437    2.317 
 C(PDBName=C6,ResName=LLX,ResNum=400_A)  65.792    29.077    2.041 
 C(PDBName=C7,ResName=LLX,ResNum=400_A)  66.221    29.218    0.726 
 N(PDBName=N8,ResName=LLX,ResNum=400_A)  67.477    29.787    0.459 
 C(PDBName=C9,ResName=LLX,ResNum=400_A)  67.622    30.832   -0.374 
 O(PDBName=O10,ResName=LLX,ResNum=400_A)  66.632    31.323   -0.889 
 C(PDBName=C11,ResName=LLX,ResNum=400_A)  69.004    31.316   -0.605 
 C(PDBName=C12,ResName=LLX,ResNum=400_A)  70.06     30.416   -0.487 
 C(PDBName=C13,ResName=LLX,ResNum=400_A)  71.367    30.826   -0.685 
 C(PDBName=C14,ResName=LLX,ResNum=400_A)  71.638    32.146   -1.005 
 C(PDBName=C15,ResName=LLX,ResNum=400_A)  70.594    33.057   -1.12 
 C(PDBName=C16,ResName=LLX,ResNum=400_A)  69.278    32.658   -0.916 
 C(PDBName=C17,ResName=LLX,ResNum=400_A)  64.095    28.308    3.73 
 C(PDBName=C18,ResName=LLX,ResNum=400_A)  65.011    28.118    4.774 
 C(PDBName=C19,ResName=LLX,ResNum=400_A)  64.554    28.039    6.088 
 C(PDBName=C20,ResName=LLX,ResNum=400_A)  63.194    28.144    6.388 
 C(PDBName=C21,ResName=LLX,ResNum=400_A)  62.273    28.341    5.363 
 C(PDBName=C22,ResName=LLX,ResNum=400_A)  62.72     28.425    4.048 
 H(PDBName=H11,ResName=LLX,ResNum=400_A)  65.308    28.562   -2.43 
 H(PDBName=H12,ResName=LLX,ResNum=400_A)  66.76     29.323   -1.872 
 H(PDBName=H3,ResName=LLX,ResNum=400_A)  63.651    27.794   -0.821 
 H(PDBName=H4,ResName=LLX,ResNum=400_A)  62.909    27.54     1.422 
 H(PDBName=H6,ResName=LLX,ResNum=400_A)  66.352    29.429    2.791 
 H(PDBName=H8,ResName=LLX,ResNum=400_A)  68.287    29.403    0.902 
 H(PDBName=H,ResName=LLX,ResNum=400_A)  69.872    29.461   -0.256 
 H(PDBName=H13,ResName=LLX,ResNum=400_A)  72.116    30.169   -0.597 
 H(PDBName=H14,ResName=LLX,ResNum=400_A)  72.581    32.443   -1.153 
 H(PDBName=H15,ResName=LLX,ResNum=400_A)  70.792    34.009   -1.352 
 H(PDBName=H16,ResName=LLX,ResNum=400_A)  68.533    33.321   -0.99 
 H(PDBName=H18,ResName=LLX,ResNum=400_A)  65.988    28.039    4.577 
 H(PDBName=H19,ResName=LLX,ResNum=400_A)  65.212    27.905    6.829 
 H(PDBName=H20,ResName=LLX,ResNum=400_A)  62.883    28.078    7.336 
 H(PDBName=H21,ResName=LLX,ResNum=400_A)  61.298    28.422    5.57 
 H(PDBName=H22,ResName=LLX,ResNum=400_A)  62.057    28.571    3.313 
 
 AtmSel:  Line=" notatoms=C,O,N,ZN"
 AtmSel:  NamVal=Blocks NAtLst=    16 NIVal=     0 NNoVal=     0:
 AtmSel:  IAtLst=     24     25     26     27     28     29     30     31     32     33
 AtmSel:  IAtLst=     34     35     36     37     38     39
 Center=     66.44364103     29.62053846      1.26656410
 Residue   1 PDB Number   379_A ZN  charge    0.00000000 layers R        AvRTP=      4.40475763    142.07232904    160.16977642
 Residue   2 PDB Number   400_A LLX charge    0.00000000 layers R        AvRTP=      0.11591467    322.07232904     19.83022358

 GradGradGradGradGradGradGradGradGradGradGradGradGradGradGradGradGradGrad
 Berny optimization.
 Initialization pass.
                           ----------------------------
                           !    Initial Parameters    !
                           ! (Angstroms and Degrees)  !
 --------------------------                            --------------------------
 ! Name  Definition              Value          Derivative Info.                !
 --------------------------------------------------------------------------------
 ! X1    R(1,-1)                65.265          Frozen                          !
 ! Y1    R(1,-2)                30.539          Frozen                          !
 ! Z1    R(1,-3)                -2.877          Frozen                          !
 ! X2    R(2,-1)                65.881          Frozen                          !
 ! Y2    R(2,-2)                28.888          Frozen                          !
 ! Z2    R(2,-3)                -1.678          Frozen                          !
 ! X3    R(3,-1)                65.449          Frozen                          !
 ! Y3    R(3,-2)                28.733          Frozen                          !
 ! Z3    R(3,-3)                -0.343          Frozen                          !
 ! X4    R(4,-1)                64.221          Frozen                          !
 ! Y4    R(4,-2)                28.125          Frozen                          !
 ! Z4    R(4,-3)                -0.069          Frozen                          !
 ! X5    R(5,-1)                63.789          Frozen                          !
 ! Y5    R(5,-2)                27.979          Frozen                          !
 ! Z5    R(5,-3)                 1.241          Frozen                          !
 ! X6    R(6,-1)                64.566          Frozen                          !
 ! Y6    R(6,-2)                28.437          Frozen                          !
 ! Z6    R(6,-3)                 2.317          Frozen                          !
 ! X7    R(7,-1)                65.792          Frozen                          !
 ! Y7    R(7,-2)                29.077          Frozen                          !
 ! Z7    R(7,-3)                 2.041          Frozen                          !
 ! X8    R(8,-1)                66.221          Frozen                          !
 ! Y8    R(8,-2)                29.218          Frozen                          !
 ! Z8    R(8,-3)                 0.726          Frozen                          !
 ! X9    R(9,-1)                67.477          Frozen                          !
 ! Y9    R(9,-2)                29.787          Frozen                          !
 ! Z9    R(9,-3)                 0.459          Frozen                          !
 ! X10   R(10,-1)               67.622          Frozen                          !
 ! Y10   R(10,-2)               30.832          Frozen                          !
 ! Z10   R(10,-3)               -0.374          Frozen                          !
 ! X11   R(11,-1)               66.632          Frozen                          !
 ! Y11   R(11,-2)               31.323          Frozen                          !
 ! Z11   R(11,-3)               -0.889          Frozen                          !
 ! X12   R(12,-1)               69.004          Frozen                          !
 ! Y12   R(12,-2)               31.316          Frozen                          !
 ! Z12   R(12,-3)               -0.605          Frozen                          !
 ! X13   R(13,-1)               70.06           Frozen                          !
 ! Y13   R(13,-2)               30.416          Frozen                          !
 ! Z13   R(13,-3)               -0.487          Frozen                          !
 ! X14   R(14,-1)               71.367          Frozen                          !
 ! Y14   R(14,-2)               30.826          Frozen                          !
 ! Z14   R(14,-3)               -0.685          Frozen                          !
 ! X15   R(15,-1)               71.638          Frozen                          !
 ! Y15   R(15,-2)               32.146          Frozen                          !
 ! Z15   R(15,-3)               -1.005          Frozen                          !
 ! X16   R(16,-1)               70.594          Frozen                          !
 ! Y16   R(16,-2)               33.057          Frozen                          !
 ! Z16   R(16,-3)               -1.12           Frozen                          !
 ! X17   R(17,-1)               69.278          Frozen                          !
 ! Y17   R(17,-2)               32.658          Frozen                          !
 ! Z17   R(17,-3)               -0.916          Frozen                          !
 ! X18   R(18,-1)               64.095          Frozen                          !
 ! Y18   R(18,-2)               28.308          Frozen                          !
 ! Z18   R(18,-3)                3.73           Frozen                          !
 ! X19   R(19,-1)               65.011          Frozen                          !
 ! Y19   R(19,-2)               28.118          Frozen                          !
 ! Z19   R(19,-3)                4.774          Frozen                          !
 ! X20   R(20,-1)               64.554          Frozen                          !
 ! Y20   R(20,-2)               28.039          Frozen                          !
 ! Z20   R(20,-3)                6.088          Frozen                          !
 ! X21   R(21,-1)               63.194          Frozen                          !
 ! Y21   R(21,-2)               28.144          Frozen                          !
 ! Z21   R(21,-3)                6.388          Frozen                          !
 ! X22   R(22,-1)               62.273          Frozen                          !
 ! Y22   R(22,-2)               28.341          Frozen                          !
 ! Z22   R(22,-3)                5.363          Frozen                          !
 ! X23   R(23,-1)               62.72           Frozen                          !
 ! Y23   R(23,-2)               28.425          Frozen                          !
 ! Z23   R(23,-3)                4.048          Frozen                          !
 ! R1    R(2,24)                 1.0001         estimate D2E/DX2                !
 ! R2    R(2,25)                 0.9998         estimate D2E/DX2                !
 ! R3    R(4,26)                 1.0            estimate D2E/DX2                !
 ! R4    R(5,27)                 0.9999         estimate D2E/DX2                !
 ! R5    R(7,28)                 1.0            estimate D2E/DX2                !
 ! R6    R(9,29)                 0.9999         estimate D2E/DX2                !
 ! R7    R(13,30)                1.0004         estimate D2E/DX2                !
 ! R8    R(14,31)                1.0002         estimate D2E/DX2                !
 ! R9    R(15,32)                0.9997         estimate D2E/DX2                !
 ! R10   R(16,33)                0.9997         estimate D2E/DX2                !
 ! R11   R(17,34)                1.0            estimate D2E/DX2                !
 ! R12   R(19,35)                0.9998         estimate D2E/DX2                !
 ! R13   R(20,36)                1.0            estimate D2E/DX2                !
 ! R14   R(21,37)                0.9999         estimate D2E/DX2                !
 ! R15   R(22,38)                1.0            estimate D2E/DX2                !
 ! R16   R(23,39)                1.0006         estimate D2E/DX2                !
 ! A1    A(1,2,24)              70.3609         estimate D2E/DX2                !
 ! A2    A(1,2,25)              78.925          estimate D2E/DX2                !
 ! A3    A(3,2,24)             119.9986         estimate D2E/DX2                !
 ! A4    A(3,2,25)             120.0222         estimate D2E/DX2                !
 ! A5    A(24,2,25)            119.9792         estimate D2E/DX2                !
 ! A6    A(3,4,26)             119.8331         estimate D2E/DX2                !
 ! A7    A(5,4,26)             119.8578         estimate D2E/DX2                !
 ! A8    A(4,5,27)             119.4224         estimate D2E/DX2                !
 ! A9    A(6,5,27)             119.4407         estimate D2E/DX2                !
 ! A10   A(6,7,28)             119.9862         estimate D2E/DX2                !
 ! A11   A(8,7,28)             120.0566         estimate D2E/DX2                !
 ! A12   A(8,9,29)             118.9879         estimate D2E/DX2                !
 ! A13   A(10,9,29)            119.0595         estimate D2E/DX2                !
 ! A14   A(12,13,30)           119.6078         estimate D2E/DX2                !
 ! A15   A(14,13,30)           119.5582         estimate D2E/DX2                !
 ! A16   A(13,14,31)           119.9998         estimate D2E/DX2                !
 ! A17   A(15,14,31)           119.9896         estimate D2E/DX2                !
 ! A18   A(14,15,32)           120.1277         estimate D2E/DX2                !
 ! A19   A(16,15,32)           120.0929         estimate D2E/DX2                !
 ! A20   A(15,16,33)           119.6339         estimate D2E/DX2                !
 ! A21   A(17,16,33)           119.6613         estimate D2E/DX2                !
 ! A22   A(12,17,34)           120.2986         estimate D2E/DX2                !
 ! A23   A(16,17,34)           120.2697         estimate D2E/DX2                !
 ! A24   A(18,19,35)           120.166          estimate D2E/DX2                !
 ! A25   A(20,19,35)           120.1203         estimate D2E/DX2                !
 ! A26   A(19,20,36)           119.3767         estimate D2E/DX2                !
 ! A27   A(21,20,36)           119.4485         estimate D2E/DX2                !
 ! A28   A(20,21,37)           120.1035         estimate D2E/DX2                !
 ! A29   A(22,21,37)           120.1115         estimate D2E/DX2                !
 ! A30   A(21,22,38)           120.2733         estimate D2E/DX2                !
 ! A31   A(23,22,38)           120.2617         estimate D2E/DX2                !
 ! A32   A(18,23,39)           119.3724         estimate D2E/DX2                !
 ! A33   A(22,23,39)           119.3522         estimate D2E/DX2                !
 ! D1    D(24,2,3,4)            -0.0276         estimate D2E/DX2                !
 ! D2    D(24,2,3,8)          -178.1732         estimate D2E/DX2                !
 ! D3    D(25,2,3,4)          -179.9819         estimate D2E/DX2                !
 ! D4    D(25,2,3,8)             1.8724         estimate D2E/DX2                !
 ! D5    D(2,3,4,26)             0.4113         estimate D2E/DX2                !
 ! D6    D(8,3,4,26)           178.5931         estimate D2E/DX2                !
 ! D7    D(3,4,5,27)          -179.857          estimate D2E/DX2                !
 ! D8    D(26,4,5,6)          -179.832          estimate D2E/DX2                !
 ! D9    D(26,4,5,27)            0.1663         estimate D2E/DX2                !
 ! D10   D(27,5,6,7)          -178.775          estimate D2E/DX2                !
 ! D11   D(27,5,6,18)           -1.2392         estimate D2E/DX2                !
 ! D12   D(5,6,7,28)           178.6586         estimate D2E/DX2                !
 ! D13   D(18,6,7,28)            1.0826         estimate D2E/DX2                !
 ! D14   D(28,7,8,3)          -179.8893         estimate D2E/DX2                !
 ! D15   D(28,7,8,9)             3.6302         estimate D2E/DX2                !
 ! D16   D(3,8,9,29)          -122.788          estimate D2E/DX2                !
 ! D17   D(7,8,9,29)            53.759          estimate D2E/DX2                !
 ! D18   D(29,9,10,11)        -178.1736         estimate D2E/DX2                !
 ! D19   D(29,9,10,12)           1.7859         estimate D2E/DX2                !
 ! D20   D(10,12,13,30)          0.425          estimate D2E/DX2                !
 ! D21   D(17,12,13,30)        179.3453         estimate D2E/DX2                !
 ! D22   D(10,12,17,34)         -0.1219         estimate D2E/DX2                !
 ! D23   D(13,12,17,34)       -179.0082         estimate D2E/DX2                !
 ! D24   D(12,13,14,31)        179.9939         estimate D2E/DX2                !
 ! D25   D(30,13,14,15)       -179.9913         estimate D2E/DX2                !
 ! D26   D(30,13,14,31)          0.0085         estimate D2E/DX2                !
 ! D27   D(13,14,15,32)       -179.6858         estimate D2E/DX2                !
 ! D28   D(31,14,15,16)       -179.696          estimate D2E/DX2                !
 ! D29   D(31,14,15,32)          0.3143         estimate D2E/DX2                !
 ! D30   D(14,15,16,33)       -179.9364         estimate D2E/DX2                !
 ! D31   D(32,15,16,17)       -179.9562         estimate D2E/DX2                !
 ! D32   D(32,15,16,33)          0.0533         estimate D2E/DX2                !
 ! D33   D(15,16,17,34)        179.2923         estimate D2E/DX2                !
 ! D34   D(33,16,17,12)        179.2898         estimate D2E/DX2                !
 ! D35   D(33,16,17,34)         -0.7173         estimate D2E/DX2                !
 ! D36   D(6,18,19,35)          -1.8858         estimate D2E/DX2                !
 ! D37   D(23,18,19,35)       -179.5589         estimate D2E/DX2                !
 ! D38   D(6,18,23,39)           1.6571         estimate D2E/DX2                !
 ! D39   D(19,18,23,39)        179.3282         estimate D2E/DX2                !
 ! D40   D(18,19,20,36)       -179.8934         estimate D2E/DX2                !
 ! D41   D(35,19,20,21)       -179.8801         estimate D2E/DX2                !
 ! D42   D(35,19,20,36)          0.1379         estimate D2E/DX2                !
 ! D43   D(19,20,21,37)        179.5293         estimate D2E/DX2                !
 ! D44   D(36,20,21,22)        179.5026         estimate D2E/DX2                !
 ! D45   D(36,20,21,37)         -0.4887         estimate D2E/DX2                !
 ! D46   D(20,21,22,38)       -179.6784         estimate D2E/DX2                !
 ! D47   D(37,21,22,23)       -179.7195         estimate D2E/DX2                !
 ! D48   D(37,21,22,38)          0.3129         estimate D2E/DX2                !
 ! D49   D(21,22,23,39)       -179.7093         estimate D2E/DX2                !
 ! D50   D(38,22,23,18)       -179.7489         estimate D2E/DX2                !
 ! D51   D(38,22,23,39)          0.2583         estimate D2E/DX2                !
 --------------------------------------------------------------------------------
 Trust Radius=3.00D-01 FncErr=1.00D-07 GrdErr=1.00D-06
 Number of steps in this run=    179 maximum allowed number of steps=    234.
 GradGradGradGradGradGradGradGradGradGradGradGradGradGradGradGradGradGrad

                          Input orientation:                          
 ---------------------------------------------------------------------
 Center     Atomic      Atomic             Coordinates (Angstroms)
 Number     Number       Type             X           Y           Z
 ---------------------------------------------------------------------
      1         30           0       65.265000   30.539000   -2.877000
      2          7           0       65.881000   28.888000   -1.678000
      3          6           0       65.449000   28.733000   -0.343000
      4          6           0       64.221000   28.125000   -0.069000
      5          6           0       63.789000   27.979000    1.241000
      6          6           0       64.566000   28.437000    2.317000
      7          6           0       65.792000   29.077000    2.041000
      8          6           0       66.221000   29.218000    0.726000
      9          7           0       67.477000   29.787000    0.459000
     10          6           0       67.622000   30.832000   -0.374000
     11          8           0       66.632000   31.323000   -0.889000
     12          6           0       69.004000   31.316000   -0.605000
     13          6           0       70.060000   30.416000   -0.487000
     14          6           0       71.367000   30.826000   -0.685000
     15          6           0       71.638000   32.146000   -1.005000
     16          6           0       70.594000   33.057000   -1.120000
     17          6           0       69.278000   32.658000   -0.916000
     18          6           0       64.095000   28.308000    3.730000
     19          6           0       65.011000   28.118000    4.774000
     20          6           0       64.554000   28.039000    6.088000
     21          6           0       63.194000   28.144000    6.388000
     22          6           0       62.273000   28.341000    5.363000
     23          6           0       62.720000   28.425000    4.048000
     24          1           0       65.308000   28.562000   -2.430000
     25          1           0       66.760000   29.323000   -1.872000
     26          1           0       63.651000   27.794000   -0.821000
     27          1           0       62.909000   27.540000    1.422000
     28          1           0       66.352000   29.429000    2.791000
     29          1           0       68.287000   29.403000    0.902000
     30          1           0       69.872000   29.461000   -0.256000
     31          1           0       72.116000   30.169000   -0.597000
     32          1           0       72.581000   32.443000   -1.153000
     33          1           0       70.792000   34.009000   -1.352000
     34          1           0       68.533000   33.321000   -0.990000
     35          1           0       65.988000   28.039000    4.577000
     36          1           0       65.212000   27.905000    6.829000
     37          1           0       62.883000   28.078000    7.336000
     38          1           0       61.298000   28.422000    5.570000
     39          1           0       62.057000   28.571000    3.313000
 ---------------------------------------------------------------------
                    Distance matrix (angstroms):
                    1          2          3          4          5
     1  Zn   0.000000
     2  N    2.131398   0.000000
     3  C    3.117154   1.411692   0.000000
     4  C    3.847362   2.434471   1.397399   0.000000
     5  C    5.068540   3.704498   2.415196   1.387098   0.000000
     6  C    5.646649   4.229971   2.818316   2.430919   1.404019
     7  C    5.157703   3.724863   2.432990   2.797578   2.420251
     8  C    3.954818   2.450248   1.404980   2.413850   2.777583
     9  N    4.072756   2.814638   2.422169   3.693584   4.181116
    10  C    3.450552   2.917299   3.021372   4.357485   5.043781
    11  O    2.536827   2.667536   2.899259   4.088096   4.878718
    12  C    4.443628   4.098737   4.402108   5.774675   6.460612
    13  C    5.359035   4.606225   4.910656   6.286281   6.946250
    14  C    6.490118   5.902380   6.286520   7.664214   8.321116
    15  C    6.833883   6.649101   7.098629   8.488606   9.165981
    16  C    6.150253   6.316985   6.765481   8.126768   8.812969
    17  C    4.943668   5.131584   5.513184   6.843884   7.528267
    18  C    7.070977   5.724741   4.313151   3.805492   2.529229
    19  C    8.028920   6.555769   5.172404   4.907015   3.740948
    20  C    9.334171   7.924171   6.529963   6.166598   4.907365
    21  C    9.791082   8.534276   7.123083   6.538191   5.183904
    22  C    9.037747   7.930483   6.542100   5.774771   4.406834
    23  C    7.674741   6.556933   5.179111   4.392344   3.036598
    24  H    2.027360   1.000054   2.098736   2.635689   4.015407
    25  H    2.173409   0.999751   2.098729   3.336545   4.508209
    26  H    3.790403   2.627582   2.083989   0.999982   2.074877
    27  H    5.746837   4.501099   3.315128   2.070423   0.999941
    28  H    5.877065   4.526200   3.334933   3.797522   3.327757
    29  H    4.970294   3.565173   3.170673   4.371325   4.730190
    30  H    5.408898   4.275336   4.483356   5.809791   6.437408
    31  H    7.229903   6.456373   6.824625   8.172377   8.804162
    32  H    7.753789   7.602871   8.079952   9.471525  10.146812
    33  H    6.701810   7.102735   7.576405   8.913225   9.598258
    34  H    4.688296   5.211328   5.565915   6.814690   7.484642
    35  H    7.895242   6.313262   4.997855   4.971418   3.996010
    36  H   10.057196   8.589697   7.223527   6.972294   5.766814
    37  H   10.771992   9.533955   8.122833   7.525057   6.162764
    38  H    9.569252   8.588047   7.231258   6.358495   5.014137
    39  H    7.244335   6.295518   4.989814   4.039769   2.764683
                    6          7          8          9         10
     6  C    0.000000
     7  C    1.410267   0.000000
     8  C    2.424926   1.390377   0.000000
     9  N    3.707908   2.417860   1.404488   0.000000
    10  C    4.724049   3.501592   2.403705   1.344224   0.000000
    11  O    4.782864   3.786161   2.684804   2.211431   1.219183
    12  C    6.043391   4.725609   3.730718   2.408665   1.482411
    13  C    6.477877   5.138047   4.200535   2.821781   2.475817
    14  C    7.808516   6.447535   5.572962   4.185733   3.757896
    15  C    8.649020   7.271354   6.396361   5.002209   4.272355
    16  C    8.336315   6.992247   6.104815   4.785586   3.786809
    17  C    7.104370   5.806859   4.886206   3.657440   2.523960
    18  C    1.495009   2.514735   3.791041   4.932018   5.971023
    19  C    2.517267   2.999822   4.365822   5.242704   6.378481
    20  C    3.791964   4.357556   5.737593   6.579139   7.679252
    21  C    4.305958   5.149418   6.509566   7.496438   8.518050
    22  C    3.813814   4.894971   6.152853   7.295324   8.229827
    23  C    2.530656   3.726974   4.890965   6.112693   7.026901
    24  H    4.806267   4.526513   3.350260   3.814644   3.838572
    25  H    4.811066   4.038454   2.655400   2.482528   2.294369
    26  H    3.331324   3.797501   3.320525   4.499858   5.019770
    27  H    2.085973   3.325240   3.777492   5.181023   6.022894
    28  H    2.097269   1.000002   2.079881   2.613812   3.687619
    29  H    4.096489   2.761996   2.081720   0.999902   2.027916
    30  H    5.985193   4.697879   3.788558   2.520620   2.637435
    31  H    8.276093   6.938623   6.116024   4.772984   4.548113
    32  H    9.608806   8.223267   7.374338   5.975257   5.271987
    33  H    9.125340   7.799812   6.940159   5.665177   4.593334
    34  H    7.108220   5.891653   5.012445   3.962814   2.721121
    35  H    2.699646   2.747209   4.034170   4.714928   5.914660
    36  H    4.588952   4.963359   6.323659   7.017767   8.139941
    37  H    5.305820   6.123504   7.492259   8.445037   9.459743
    38  H    4.611080   5.751426   6.952257   8.134223   9.007342
    39  H    2.702786   3.977970   4.944702   6.245028   7.048072
                   11         12         13         14         15
    11  O    0.000000
    12  C    2.388951   0.000000
    13  C    3.568674   1.392501   0.000000
    14  C    4.765380   2.414595   1.384035   0.000000
    15  C    5.074527   2.790494   2.398188   1.385006   0.000000
    16  C    4.331000   2.413381   2.767802   2.400857   1.390353
    17  C    2.963827   1.404550   2.412909   2.788101   2.416540
    18  C    6.071388   7.206842   7.603156   8.872121   9.697800
    19  C    6.705910   7.423267   7.645347   8.805264   9.671544
    20  C    7.986318   8.679716   8.899258  10.002893  10.833335
    21  C    8.653359   9.629109   9.978455  11.136354  11.915267
    22  C    8.184174   9.474915   9.958187  11.200641  11.947078
    23  C    6.933694   8.336483   8.854711  10.145772  10.904557
    24  H    3.427941   4.957374   5.458394   6.699418   7.412461
    25  H    2.232190   3.257741   3.742041   4.989231   5.702272
    26  H    4.620046   6.411377   6.932656   8.291452   9.097578
    27  H    5.789002   7.450901   7.940558   9.315310  10.163710
    28  H    4.148257   4.703901   5.046654   6.259745   7.052198
    29  H    3.103725   2.538643   2.469619   3.745651   4.731797
    30  H    3.790163   2.077559   1.000365   2.069370   3.299846
    31  H    5.611705   3.316658   2.073703   1.000197   2.074482
    32  H    6.059265   3.790166   3.302685   2.075454   0.999681
    33  H    4.973386   3.317710   3.767452   3.302575   2.075306
    34  H    2.759711   2.095254   3.320205   3.788087   3.319921
    35  H    6.409099   6.832870   6.919206   8.024316   8.941402
    36  H    8.559594   9.015461   9.128641  10.142803  10.984130
    37  H    9.603939  10.536165  10.870828  11.994424  12.758171
    38  H    8.864877  10.290204  10.836786  12.094999  12.806811
    39  H    6.794184   8.434842   9.049422  10.380035  11.100509
                   16         17         18         19         20
    16  C    0.000000
    17  C    1.390206   0.000000
    18  C    9.397473   8.208002   0.000000
    19  C    9.502781   8.437712   1.401817   0.000000
    20  C   10.659136   9.628466   2.417272   1.393444   0.000000
    21  C   11.630461  10.523292   2.811345   2.430465   1.396648
    22  C   11.554609  10.350476   2.446929   2.809501   2.412424
    23  C   10.495881   9.250240   1.416135   2.422810   2.770226
    24  H    7.061368   5.901721   6.283429   7.223777   8.567285
    25  H    5.404426   4.286780   6.286084   6.977130   8.359228
    26  H    8.717443   7.438458   4.601406   5.767027   6.972067
    27  H    9.795830   8.498490   2.706157   3.998549   4.972583
    28  H    6.815634   5.720993   2.689314   2.729339   4.004387
    29  H    4.771001   3.857749   5.173922   5.232187   6.533788
    30  H    3.768156   3.318018   7.112759   7.122771   8.399378
    31  H    3.306139   3.788288   9.301757   9.139763  10.315521
    32  H    2.079965   3.318464  10.627987  10.542289  11.673047
    33  H    0.999666   2.075450  10.157654  10.278702  11.397682
    34  H    2.081902   1.000035   8.191728   8.526394   9.686591
    35  H    8.879829   7.895081   2.091224   0.999789   2.083141
    36  H   10.894752   9.955320   3.318719   2.075764   1.000000
    37  H   12.480140  11.400348   3.811178   3.330740   2.085969
    38  H   12.355361  11.121704   3.349896   3.809515   3.319119
    39  H   10.613956   9.312940   2.096784   3.326537   3.770764
                   21         22         23         24         25
    21  C    0.000000
    22  C    1.392004   0.000000
    23  C    2.404004   1.391435   0.000000
    24  H    9.077491   8.366057   6.977177   0.000000
    25  H    9.073808   8.569873   7.223185   1.731701   0.000000
    26  H    7.231945   6.359241   4.997208   2.434000   3.620542
    27  H    5.010708   4.071557   2.777557   4.651622   5.372125
    28  H    4.956067   4.943397   3.972340   5.394485   4.682015
    29  H    7.590779   7.562841   6.468793   4.547961   3.167523
    30  H    9.511725   9.516951   8.411232   5.134644   3.509280
    31  H   11.510558  11.651087  10.625553   7.231266   5.570285
    32  H   12.785298  12.866216  11.850487   8.342027   6.643448
    33  H   12.330265  12.238906  11.202600   7.804239   6.203710
    34  H   10.475740  10.215117   9.118291   5.926408   4.461553
    35  H    3.331243   3.809229   3.332966   7.059319   6.620743
    36  H    2.079405   3.313152   3.770202   9.282777   8.950666
    37  H    0.999890   2.081826   3.310275  10.074207  10.068188
    38  H    2.083560   1.000017   2.082925   8.949844   9.275161
    39  H    3.306164   2.074140   1.000555   6.599328   7.040450
                   26         27         28         29         30
    26  H    0.000000
    27  H    2.376158   0.000000
    28  H    4.797413   4.158934   0.000000
    29  H    5.200972   5.715247   2.704297   0.000000
    30  H    6.465211   7.415477   4.655710   1.963811   0.000000
    31  H    8.794716   9.785543   6.726800   4.182702   2.377621
    32  H   10.073149  11.145296   7.964909   5.648279   4.127422
    33  H    9.481670  10.568099   7.606211   5.707081   4.767800
    34  H    7.376328   8.418259   5.848110   4.357855   4.151057
    35  H    5.887274   4.436583   2.292246   4.544395   6.361244
    36  H    7.808428   5.888351   4.464036   6.843169   8.621715
    37  H    8.197995   5.938478   5.875048   8.506186  10.411401
    38  H    6.839289   4.536425   5.854896   8.461602  10.418026
    39  H    4.498280   2.316192   4.410859   6.731868   8.637366
                   31         32         33         34         35
    31  H    0.000000
    32  H    2.386721   0.000000
    33  H    4.131416   2.385891   0.000000
    34  H    4.788261   4.145330   2.389031   0.000000
    35  H    8.298166   9.782421   9.688775   8.085050   0.000000
    36  H   10.389244  11.773187  11.632883  10.074664   2.385715
    37  H   12.351237  13.607628  13.160942  11.346093   4.153869
    38  H   12.574300  13.735838  13.010176  10.926071   4.809245
    39  H   10.909866  12.070299  11.297535   9.111360   4.163350
                   36         37         38         39
    36  H    0.000000
    37  H    2.389816   0.000000
    38  H    4.143883   2.397773   0.000000
    39  H    4.770727   4.136406   2.385861   0.000000
 Stoichiometry    C19H16N2OZn(2+)
 Framework group  C1[X(C19H16N2OZn)]
 Deg. of freedom   111
 Full point group                 C1      NOp   1
 Largest Abelian subgroup         C1      NOp   1
 Largest concise Abelian subgroup C1      NOp   1
                         Standard orientation:                         
 ---------------------------------------------------------------------
 Center     Atomic      Atomic             Coordinates (Angstroms)
 Number     Number       Type             X           Y           Z
 ---------------------------------------------------------------------
      1         30           0        2.072082    3.018224    0.404347
      2          7           0        1.002790    1.969851   -1.112356
      3          6           0       -0.245847    1.361440   -0.860136
      4          6           0       -1.420684    2.114629   -0.932177
      5          6           0       -2.648640    1.522474   -0.676215
      6          6           0       -2.742665    0.163070   -0.337913
      7          6           0       -1.555678   -0.591623   -0.236171
      8          6           0       -0.327985    0.006806   -0.496557
      9          7           0        0.844646   -0.765698   -0.468968
     10          6           0        1.902555   -0.426185    0.287668
     11          8           0        1.832761    0.563161    0.996701
     12          6           0        3.096081   -1.300933    0.199038
     13          6           0        3.328021   -2.004209   -0.980228
     14          6           0        4.424709   -2.839358   -1.104136
     15          6           0        5.308308   -2.983834   -0.047433
     16          6           0        5.085815   -2.292566    1.138200
     17          6           0        3.983548   -1.456766    1.276478
     18          6           0       -4.059595   -0.475939   -0.033916
     19          6           0       -4.288755   -1.823432   -0.345110
     20          6           0       -5.509770   -2.409833   -0.018093
     21          6           0       -6.516628   -1.678031    0.615411
     22          6           0       -6.301078   -0.341243    0.938231
     23          6           0       -5.083661    0.252210    0.619172
     24          1           0        1.047809    2.941768   -1.343568
     25          1           0        1.842185    1.429260   -1.060593
     26          1           0       -1.375690    3.085111   -1.169041
     27          1           0       -3.481153    2.073389   -0.733638
     28          1           0       -1.597578   -1.556508    0.023144
     29          1           0        0.893420   -1.592668   -1.028922
     30          1           0        2.694080   -1.904988   -1.747694
     31          1           0        4.579247   -3.338676   -1.956893
     32          1           0        6.103573   -3.582960   -0.136675
     33          1           0        5.725489   -2.397710    1.899182
     34          1           0        3.824035   -0.970849    2.135844
     35          1           0       -3.579601   -2.361602   -0.800141
     36          1           0       -5.667260   -3.371875   -0.240972
     37          1           0       -7.389385   -2.113029    0.836437
     38          1           0       -7.015171    0.188266    1.396191
     39          1           0       -4.928909    1.211957    0.855916
 ---------------------------------------------------------------------
 Rotational constants (GHZ):      0.3282310      0.1117573      0.0888070
 Standard basis: 6-311+G(2d,p) (5D, 7F)
 There are   809 symmetry adapted cartesian basis functions of A   symmetry.
 There are   755 symmetry adapted basis functions of A   symmetry.
   755 basis functions,  1156 primitive gaussians,   809 cartesian basis functions
    90 alpha electrons       90 beta electrons
       nuclear repulsion energy      2093.5080344221 Hartrees.
 NAtoms=   39 NActive=   39 NUniq=   39 SFac= 1.00D+00 NAtFMM=   60 NAOKFM=F Big=F
 Integral buffers will be    131072 words long.
 Raffenetti 2 integral format.
 Two-electron integral symmetry is turned on.
 R6APFD:  NTU= -4 IXU= 1 FactS= 1.050
 Nuclear repulsion after empirical dispersion term =     2093.4777482964 Hartrees.
 One-electron integrals computed using PRISM.
 NBasis=   755 RedAO= T EigKep=  1.79D-06  NBF=   755
 NBsUse=   750 1.00D-06 EigRej=  9.97D-07 NBFU=   750
 ExpMin= 1.53D-02 ExpMax= 3.16D+05 ExpMxC= 1.12D+04 IAcc=3 IRadAn=         5 AccDes= 0.00D+00
 Harris functional with IExCor= 3731 and IRadAn=       5 diagonalized for initial guess.
 HarFok:  IExCor= 3731 AccDes= 0.00D+00 IRadAn=         5 IDoV= 1 UseB2=F ITyADJ=14
 ICtDFT=  3500011 ScaDFX=  1.000000  1.000000  1.000000  1.000000
 FoFCou: FMM=F IPFlag=           0 FMFlag=      100000 FMFlg1=           0
         NFxFlg=           0 DoJE=T BraDBF=F KetDBF=T FulRan=T
         wScrn=  0.000000 ICntrl=     500 IOpCl=  0 I1Cent=   200000004 NGrid=           0
         NMat0=    1 NMatS0=      1 NMatT0=    0 NMatD0=    1 NMtDS0=    0 NMtDT0=    0
 Petite list used in FoFCou.
 Requested convergence on RMS density matrix=1.00D-08 within 128 cycles.
 Requested convergence on MAX density matrix=1.00D-06.
 Requested convergence on             energy=1.00D-06.
 No special actions if energy rises.
 EnCoef did   100 forward-backward iterations
 EnCoef did   100 forward-backward iterations
 EnCoef did     2 forward-backward iterations
 EnCoef did     6 forward-backward iterations
 EnCoef did     2 forward-backward iterations
 EnCoef did     1 forward-backward iterations
 Restarting incremental Fock formation.
 SCF Done:  E(RAPFD) =  -2696.34036966     A.U. after   25 cycles
            NFock= 25  Conv=0.65D-08     -V/T= 2.0011

 **********************************************************************

            Population analysis using the SCF density.

 **********************************************************************

 Orbital symmetries:
       Occupied  (A) (A) (A) (A) (A) (A) (A) (A) (A) (A) (A) (A)
                 (A) (A) (A) (A) (A) (A) (A) (A) (A) (A) (A) (A)
                 (A) (A) (A) (A) (A) (A) (A) (A) (A) (A) (A) (A)
                 (A) (A) (A) (A) (A) (A) (A) (A) (A) (A) (A) (A)
                 (A) (A) (A) (A) (A) (A) (A) (A) (A) (A) (A) (A)
                 (A) (A) (A) (A) (A) (A) (A) (A) (A) (A) (A) (A)
                 (A) (A) (A) (A) (A) (A) (A) (A) (A) (A) (A) (A)
                 (A) (A) (A) (A) (A) (A)
       Virtual   (A) (A) (A) (A) (A) (A) (A) (A) (A) (A) (A) (A)
                 (A) (A) (A) (A) (A) (A) (A) (A) (A) (A) (A) (A)
                 (A) (A) (A) (A) (A) (A) (A) (A) (A) (A) (A) (A)
                 (A) (A) (A) (A) (A) (A) (A) (A) (A) (A) (A) (A)
                 (A) (A) (A) (A) (A) (A) (A) (A) (A) (A) (A) (A)
                 (A) (A) (A) (A) (A) (A) (A) (A) (A) (A) (A) (A)
                 (A) (A) (A) (A) (A) (A) (A) (A) (A) (A) (A) (A)
                 (A) (A) (A) (A) (A) (A) (A) (A) (A) (A) (A) (A)
                 (A) (A) (A) (A) (A) (A) (A) (A) (A) (A) (A) (A)
                 (A) (A) (A) (A) (A) (A) (A) (A) (A) (A) (A) (A)
                 (A) (A) (A) (A) (A) (A) (A) (A) (A) (A) (A) (A)
                 (A) (A) (A) (A) (A) (A) (A) (A) (A) (A) (A) (A)
                 (A) (A) (A) (A) (A) (A) (A) (A) (A) (A) (A) (A)
                 (A) (A) (A) (A) (A) (A) (A) (A) (A) (A) (A) (A)
                 (A) (A) (A) (A) (A) (A) (A) (A) (A) (A) (A) (A)
                 (A) (A) (A) (A) (A) (A) (A) (A) (A) (A) (A) (A)
                 (A) (A) (A) (A) (A) (A) (A) (A) (A) (A) (A) (A)
                 (A) (A) (A) (A) (A) (A) (A) (A) (A) (A) (A) (A)
                 (A) (A) (A) (A) (A) (A) (A) (A) (A) (A) (A) (A)
                 (A) (A) (A) (A) (A) (A) (A) (A) (A) (A) (A) (A)
                 (A) (A) (A) (A) (A) (A) (A) (A) (A) (A) (A) (A)
                 (A) (A) (A) (A) (A) (A) (A) (A) (A) (A) (A) (A)
                 (A) (A) (A) (A) (A) (A) (A) (A) (A) (A) (A) (A)
                 (A) (A) (A) (A) (A) (A) (A) (A) (A) (A) (A) (A)
                 (A) (A) (A) (A) (A) (A) (A) (A) (A) (A) (A) (A)
                 (A) (A) (A) (A) (A) (A) (A) (A) (A) (A) (A) (A)
                 (A) (A) (A) (A) (A) (A) (A) (A) (A) (A) (A) (A)
                 (A) (A) (A) (A) (A) (A) (A) (A) (A) (A) (A) (A)
                 (A) (A) (A) (A) (A) (A) (A) (A) (A) (A) (A) (A)
                 (A) (A) (A) (A) (A) (A) (A) (A) (A) (A) (A) (A)
                 (A) (A) (A) (A) (A) (A) (A) (A) (A) (A) (A) (A)
                 (A) (A) (A) (A) (A) (A) (A) (A) (A) (A) (A) (A)
                 (A) (A) (A) (A) (A) (A) (A) (A) (A) (A) (A) (A)
                 (A) (A) (A) (A) (A) (A) (A) (A) (A) (A) (A) (A)
                 (A) (A) (A) (A) (A) (A) (A) (A) (A) (A) (A) (A)
                 (A) (A) (A) (A) (A) (A) (A) (A) (A) (A) (A) (A)
                 (A) (A) (A) (A) (A) (A) (A) (A) (A) (A) (A) (A)
                 (A) (A) (A) (A) (A) (A) (A) (A) (A) (A) (A) (A)
                 (A) (A) (A) (A) (A) (A) (A) (A) (A) (A) (A) (A)
                 (A) (A) (A) (A) (A) (A) (A) (A) (A) (A) (A) (A)
                 (A) (A) (A) (A) (A) (A) (A) (A) (A) (A) (A) (A)
                 (A) (A) (A) (A) (A) (A) (A) (A) (A) (A) (A) (A)
                 (A) (A) (A) (A) (A) (A) (A) (A) (A) (A) (A) (A)
                 (A) (A) (A) (A) (A) (A) (A) (A) (A) (A) (A) (A)
                 (A) (A) (A) (A) (A) (A) (A) (A) (A) (A) (A) (A)
                 (A) (A) (A) (A) (A) (A) (A) (A) (A) (A) (A) (A)
                 (A) (A) (A) (A) (A) (A) (A) (A) (A) (A) (A) (A)
                 (A) (A) (A) (A) (A) (A) (A) (A) (A) (A) (A) (A)
                 (A) (A) (A) (A) (A) (A) (A) (A) (A) (A) (A) (A)
                 (A) (A) (A) (A) (A) (A) (A) (A) (A) (A) (A) (A)
                 (A) (A) (A) (A) (A) (A) (A) (A) (A) (A) (A) (A)
                 (A) (A) (A) (A) (A) (A) (A) (A) (A) (A) (A) (A)
                 (A) (A) (A) (A) (A) (A) (A) (A) (A) (A) (A) (A)
                 (A) (A) (A) (A) (A) (A) (A) (A) (A) (A) (A) (A)
                 (A) (A) (A) (A) (A) (A) (A) (A) (A) (A) (A) (A)
 The electronic state is 1-A.
 Alpha  occ. eigenvalues -- -347.76197 -42.58036 -37.56058 -37.55986 -37.55908
 Alpha  occ. eigenvalues --  -19.40250 -14.72353 -14.65304 -10.55790 -10.54980
 Alpha  occ. eigenvalues --  -10.53013 -10.49596 -10.47523 -10.46934 -10.46780
 Alpha  occ. eigenvalues --  -10.46459 -10.43024 -10.42934 -10.42723 -10.42521
 Alpha  occ. eigenvalues --  -10.41501 -10.41384 -10.40882 -10.40417 -10.39246
 Alpha  occ. eigenvalues --  -10.39138 -10.38962  -5.18218  -3.56663  -3.56548
 Alpha  occ. eigenvalues --   -3.56370  -1.34389  -1.27932  -1.23014  -1.15302
 Alpha  occ. eigenvalues --   -1.11047  -1.09275  -1.05788  -1.05023  -0.99924
 Alpha  occ. eigenvalues --   -0.99683  -0.99289  -0.97882  -0.93876  -0.93045
 Alpha  occ. eigenvalues --   -0.89748  -0.87630  -0.85953  -0.85304  -0.85072
 Alpha  occ. eigenvalues --   -0.84795  -0.83563  -0.83042  -0.82773  -0.82711
 Alpha  occ. eigenvalues --   -0.82236  -0.81982  -0.80019  -0.77948  -0.76552
 Alpha  occ. eigenvalues --   -0.75389  -0.74108  -0.73296  -0.72844  -0.71197
 Alpha  occ. eigenvalues --   -0.70913  -0.69846  -0.69561  -0.68997  -0.66791
 Alpha  occ. eigenvalues --   -0.66616  -0.66054  -0.65117  -0.65016  -0.64656
 Alpha  occ. eigenvalues --   -0.63474  -0.60302  -0.59262  -0.58704  -0.58480
 Alpha  occ. eigenvalues --   -0.58242  -0.57061  -0.56546  -0.53537  -0.53364
 Alpha  occ. eigenvalues --   -0.52515  -0.48767  -0.47777  -0.47471  -0.46878
 Alpha virt. eigenvalues --   -0.43494  -0.29274  -0.29014  -0.28358  -0.27315
 Alpha virt. eigenvalues --   -0.25674  -0.23307  -0.22535  -0.22151  -0.21468
 Alpha virt. eigenvalues --   -0.19027  -0.18467  -0.18012  -0.16951  -0.16073
 Alpha virt. eigenvalues --   -0.15560  -0.15116  -0.14370  -0.13834  -0.13598
 Alpha virt. eigenvalues --   -0.13070  -0.12884  -0.12281  -0.11820  -0.11408
 Alpha virt. eigenvalues --   -0.11194  -0.11011  -0.10424  -0.10295  -0.10077
 Alpha virt. eigenvalues --   -0.09302  -0.09076  -0.08707  -0.08565  -0.08127
 Alpha virt. eigenvalues --   -0.08014  -0.07754  -0.07210  -0.06670  -0.06494
 Alpha virt. eigenvalues --   -0.06074  -0.05936  -0.05743  -0.05407  -0.05280
 Alpha virt. eigenvalues --   -0.04939  -0.04768  -0.04149  -0.03765  -0.03630
 Alpha virt. eigenvalues --   -0.03423  -0.03159  -0.02924  -0.02645  -0.02305
 Alpha virt. eigenvalues --   -0.02085  -0.01821  -0.01457  -0.01271  -0.00905
 Alpha virt. eigenvalues --   -0.00498  -0.00396  -0.00298   0.00186   0.00337
 Alpha virt. eigenvalues --    0.00778   0.00880   0.01194   0.01211   0.01430
 Alpha virt. eigenvalues --    0.01872   0.02281   0.02565   0.03178   0.03402
 Alpha virt. eigenvalues --    0.03672   0.03859   0.04044   0.04274   0.04556
 Alpha virt. eigenvalues --    0.04603   0.04807   0.04905   0.05155   0.05420
 Alpha virt. eigenvalues --    0.05636   0.05835   0.06046   0.06597   0.06764
 Alpha virt. eigenvalues --    0.07043   0.07132   0.07246   0.07588   0.07746
 Alpha virt. eigenvalues --    0.08060   0.08572   0.08702   0.08943   0.09257
 Alpha virt. eigenvalues --    0.09740   0.09954   0.10197   0.10315   0.10551
 Alpha virt. eigenvalues --    0.10836   0.11131   0.11292   0.11307   0.11910
 Alpha virt. eigenvalues --    0.12198   0.12261   0.12616   0.13233   0.13642
 Alpha virt. eigenvalues --    0.13874   0.14042   0.14477   0.14854   0.15118
 Alpha virt. eigenvalues --    0.15289   0.15918   0.16055   0.16564   0.16742
 Alpha virt. eigenvalues --    0.17398   0.17672   0.18226   0.19383   0.20609
 Alpha virt. eigenvalues --    0.21080   0.21470   0.21621   0.21959   0.22260
 Alpha virt. eigenvalues --    0.23306   0.24308   0.25538   0.25683   0.26285
 Alpha virt. eigenvalues --    0.26861   0.27699   0.28591   0.28922   0.29430
 Alpha virt. eigenvalues --    0.29643   0.30076   0.31131   0.31819   0.32061
 Alpha virt. eigenvalues --    0.32732   0.32918   0.33327   0.33908   0.34027
 Alpha virt. eigenvalues --    0.34441   0.34721   0.35205   0.35412   0.35704
 Alpha virt. eigenvalues --    0.35862   0.36414   0.36864   0.36965   0.37409
 Alpha virt. eigenvalues --    0.37491   0.37922   0.38719   0.39318   0.39600
 Alpha virt. eigenvalues --    0.40412   0.41039   0.41315   0.41885   0.42069
 Alpha virt. eigenvalues --    0.42564   0.42784   0.43324   0.43676   0.44040
 Alpha virt. eigenvalues --    0.44740   0.44827   0.45674   0.45960   0.46720
 Alpha virt. eigenvalues --    0.47089   0.47738   0.47949   0.48358   0.48875
 Alpha virt. eigenvalues --    0.49260   0.49311   0.49708   0.50211   0.50507
 Alpha virt. eigenvalues --    0.50834   0.51485   0.51916   0.52231   0.52288
 Alpha virt. eigenvalues --    0.52755   0.52936   0.53521   0.53965   0.54231
 Alpha virt. eigenvalues --    0.54584   0.54785   0.55323   0.55458   0.56256
 Alpha virt. eigenvalues --    0.56503   0.56920   0.57658   0.57970   0.58513
 Alpha virt. eigenvalues --    0.59326   0.59389   0.60015   0.60223   0.60668
 Alpha virt. eigenvalues --    0.61132   0.61511   0.61750   0.62065   0.62538
 Alpha virt. eigenvalues --    0.62675   0.63117   0.63399   0.63756   0.64409
 Alpha virt. eigenvalues --    0.64787   0.64865   0.65210   0.65749   0.66077
 Alpha virt. eigenvalues --    0.66270   0.66777   0.67470   0.68113   0.68548
 Alpha virt. eigenvalues --    0.68956   0.69706   0.70303   0.71290   0.71849
 Alpha virt. eigenvalues --    0.72611   0.72947   0.74246   0.75465   0.75725
 Alpha virt. eigenvalues --    0.76243   0.77469   0.78659   0.79295   0.80271
 Alpha virt. eigenvalues --    0.80932   0.81475   0.83630   0.84919   0.86059
 Alpha virt. eigenvalues --    0.86661   0.87142   0.88034   0.88393   0.90097
 Alpha virt. eigenvalues --    0.91324   0.91744   0.92462   0.93487   0.94045
 Alpha virt. eigenvalues --    0.94211   0.94902   0.96026   0.96269   0.96818
 Alpha virt. eigenvalues --    0.97130   0.98463   0.99166   0.99785   1.00543
 Alpha virt. eigenvalues --    1.01387   1.02240   1.03276   1.04677   1.05667
 Alpha virt. eigenvalues --    1.06238   1.06896   1.07047   1.07661   1.08135
 Alpha virt. eigenvalues --    1.08374   1.09110   1.09597   1.10969   1.12184
 Alpha virt. eigenvalues --    1.12466   1.12623   1.13531   1.14035   1.14862
 Alpha virt. eigenvalues --    1.15525   1.15818   1.16028   1.16426   1.17073
 Alpha virt. eigenvalues --    1.17399   1.17842   1.18375   1.19451   1.19750
 Alpha virt. eigenvalues --    1.20997   1.21144   1.21320   1.24117   1.24859
 Alpha virt. eigenvalues --    1.26546   1.26845   1.28785   1.30311   1.31664
 Alpha virt. eigenvalues --    1.32022   1.32348   1.32988   1.34244   1.35898
 Alpha virt. eigenvalues --    1.36422   1.37142   1.38099   1.38429   1.39223
 Alpha virt. eigenvalues --    1.40434   1.41319   1.41888   1.43368   1.43498
 Alpha virt. eigenvalues --    1.44986   1.45823   1.46168   1.47508   1.48893
 Alpha virt. eigenvalues --    1.49325   1.52234   1.52475   1.54063   1.54687
 Alpha virt. eigenvalues --    1.55441   1.56126   1.56802   1.57140   1.58145
 Alpha virt. eigenvalues --    1.59018   1.59854   1.61276   1.62440   1.63034
 Alpha virt. eigenvalues --    1.63886   1.64657   1.64891   1.66270   1.67324
 Alpha virt. eigenvalues --    1.68888   1.71891   1.72225   1.73192   1.73277
 Alpha virt. eigenvalues --    1.77113   1.77936   1.78955   1.79795   1.81405
 Alpha virt. eigenvalues --    1.82473   1.83902   1.86228   1.86824   1.88470
 Alpha virt. eigenvalues --    1.89492   1.90160   1.92406   1.95634   1.99687
 Alpha virt. eigenvalues --    2.00361   2.02896   2.04334   2.06067   2.06283
 Alpha virt. eigenvalues --    2.07144   2.08582   2.08936   2.11068   2.12173
 Alpha virt. eigenvalues --    2.14387   2.15368   2.17121   2.18010   2.20045
 Alpha virt. eigenvalues --    2.20565   2.21367   2.22353   2.22860   2.23297
 Alpha virt. eigenvalues --    2.25304   2.28668   2.29971   2.35740   2.37416
 Alpha virt. eigenvalues --    2.37577   2.39627   2.41215   2.42469   2.43617
 Alpha virt. eigenvalues --    2.44545   2.45872   2.46521   2.47361   2.48805
 Alpha virt. eigenvalues --    2.51153   2.52552   2.54425   2.55517   2.56349
 Alpha virt. eigenvalues --    2.56899   2.57566   2.58039   2.60540   2.61173
 Alpha virt. eigenvalues --    2.61868   2.62330   2.63240   2.63584   2.64109
 Alpha virt. eigenvalues --    2.64616   2.65829   2.66297   2.66408   2.66824
 Alpha virt. eigenvalues --    2.67319   2.68682   2.69196   2.69220   2.70387
 Alpha virt. eigenvalues --    2.70613   2.72055   2.72782   2.73772   2.73972
 Alpha virt. eigenvalues --    2.74435   2.75734   2.78235   2.79470   2.81951
 Alpha virt. eigenvalues --    2.82568   2.82985   2.85020   2.85479   2.86584
 Alpha virt. eigenvalues --    2.87813   2.90497   2.90869   2.91421   2.92086
 Alpha virt. eigenvalues --    2.93457   2.94205   2.94983   2.95522   2.95837
 Alpha virt. eigenvalues --    2.96942   2.98486   2.98754   2.99523   3.00778
 Alpha virt. eigenvalues --    3.01032   3.01355   3.02599   3.04198   3.05546
 Alpha virt. eigenvalues --    3.06311   3.06975   3.07702   3.08356   3.09130
 Alpha virt. eigenvalues --    3.09571   3.09909   3.10852   3.11141   3.11474
 Alpha virt. eigenvalues --    3.11621   3.12709   3.13562   3.14728   3.15666
 Alpha virt. eigenvalues --    3.17328   3.18605   3.19525   3.20630   3.21532
 Alpha virt. eigenvalues --    3.22835   3.23755   3.25101   3.25330   3.26620
 Alpha virt. eigenvalues --    3.27625   3.28044   3.28383   3.28918   3.28997
 Alpha virt. eigenvalues --    3.29391   3.29897   3.31811   3.32871   3.33093
 Alpha virt. eigenvalues --    3.34701   3.34836   3.35456   3.36002   3.36694
 Alpha virt. eigenvalues --    3.37320   3.37869   3.38760   3.39596   3.39833
 Alpha virt. eigenvalues --    3.40054   3.40680   3.41268   3.42549   3.43791
 Alpha virt. eigenvalues --    3.44309   3.44837   3.45914   3.46373   3.46637
 Alpha virt. eigenvalues --    3.47394   3.48080   3.48672   3.50180   3.51758
 Alpha virt. eigenvalues --    3.53222   3.54594   3.55495   3.56821   3.57813
 Alpha virt. eigenvalues --    3.58069   3.58896   3.60066   3.60972   3.62846
 Alpha virt. eigenvalues --    3.64907   3.65298   3.67415   3.68542   3.69938
 Alpha virt. eigenvalues --    3.70857   3.72920   3.73612   3.74059   3.75164
 Alpha virt. eigenvalues --    3.75537   3.76637   3.77201   3.77994   3.78259
 Alpha virt. eigenvalues --    3.80062   3.81966   3.83284   3.84134   3.84502
 Alpha virt. eigenvalues --    3.85176   3.86110   3.86987   3.89214   3.93351
 Alpha virt. eigenvalues --    3.97372   3.97702   3.99125   4.00567   4.01497
 Alpha virt. eigenvalues --    4.03963   4.08229   4.12574   4.25643   4.28256
 Alpha virt. eigenvalues --    4.44573   4.45423   4.47981   4.48226   4.49916
 Alpha virt. eigenvalues --    4.53253   4.56366   4.59849   4.61052   4.66855
 Alpha virt. eigenvalues --    4.68297   4.70522   4.71922   4.72943   4.80876
 Alpha virt. eigenvalues --    4.84906   4.85592   4.90733   4.94511   4.94939
 Alpha virt. eigenvalues --    4.97917   5.02695   5.05344   5.08930   5.09258
 Alpha virt. eigenvalues --    5.14741   5.17863   5.21081   5.23774   5.32279
 Alpha virt. eigenvalues --    5.48379   5.95122   6.66346   6.71260   6.87058
 Alpha virt. eigenvalues --    7.05516   7.09246   7.59151   7.60678   7.63374
 Alpha virt. eigenvalues --    7.65883   7.75111   8.54627   8.55582   8.55719
 Alpha virt. eigenvalues --    8.58074   8.59485   8.60333   8.72694  10.08787
 Alpha virt. eigenvalues --   10.21658  10.30403  23.57338  23.66295  23.66925
 Alpha virt. eigenvalues --   23.77905  23.86228  23.87878  23.89087  23.91051
 Alpha virt. eigenvalues --   23.94025  23.95033  23.98458  24.00557  24.03183
 Alpha virt. eigenvalues --   24.04188  24.05702  24.06294  24.07886  24.09348
 Alpha virt. eigenvalues --   24.12085  34.06735  35.46684  35.59496  44.27105
 Alpha virt. eigenvalues --   44.36443  44.43113  49.94092 187.58184 979.18571
          Condensed to atoms (all electrons):
               1          2          3          4          5          6
     1  Zn  29.475767  -0.123876   0.070251  -0.033663   0.006808   0.007663
     2  N   -0.123876   6.931409  -0.211716   0.046821   0.161508  -0.088319
     3  C    0.070251  -0.211716   7.290222  -1.168375  -0.872991  -0.201062
     4  C   -0.033663   0.046821  -1.168375   8.989837  -0.099129  -0.129030
     5  C    0.006808   0.161508  -0.872991  -0.099129   7.844099  -0.028929
     6  C    0.007663  -0.088319  -0.201062  -0.129030  -0.028929   7.892976
     7  C   -0.004614  -0.057277  -0.126782  -0.164446  -1.082969   0.321302
     8  C    0.128857  -0.115649   0.996108  -1.202362  -0.233694  -1.679934
     9  N   -0.036616   0.024914  -0.087953   0.024328  -0.070907  -0.044964
    10  C   -0.096713   0.105237   0.188236  -0.303759   0.159234  -0.438016
    11  O    0.029732  -0.056190   0.017109  -0.004845   0.012106  -0.056992
    12  C    0.048788  -0.020041   0.008347  -0.045484   0.020609   0.012519
    13  C   -0.085173   0.004389  -0.001143   0.022234  -0.040156   0.038160
    14  C   -0.002660   0.020619   0.004108  -0.003032  -0.007349  -0.023520
    15  C   -0.004234   0.002690  -0.002599  -0.000605  -0.000166   0.000146
    16  C    0.005223  -0.003646  -0.002177  -0.005476   0.000605  -0.007285
    17  C    0.019946   0.022155  -0.028046  -0.038424   0.016458  -0.027929
    18  C   -0.005080   0.016393  -0.096466   0.145884  -0.064771  -0.181147
    19  C   -0.000911  -0.001126  -0.186935   0.280095  -0.867385  -0.154480
    20  C   -0.000036   0.000248  -0.023983   0.006786   0.044866   0.274008
    21  C   -0.000012   0.000054  -0.001009   0.001315   0.005050  -0.221646
    22  C    0.000582  -0.000351   0.013534  -0.124030  -0.109949   0.527668
    23  C    0.002041   0.001821   0.179310  -0.258980   1.210656  -1.018445
    24  H    0.040081   0.298792  -0.043251   0.030095   0.002759  -0.000642
    25  H    0.035201   0.297405  -0.010638   0.016799  -0.006880   0.006384
    26  H   -0.001857   0.000881  -0.132317   0.441464   0.018963   0.013343
    27  H    0.000015  -0.001039   0.002172  -0.013245   0.414532  -0.043404
    28  H   -0.000061  -0.000425  -0.010347   0.008295   0.010779  -0.005725
    29  H    0.000940   0.003904  -0.000446  -0.006074   0.001831  -0.010068
    30  H    0.000134  -0.000650  -0.002406  -0.000341  -0.000772   0.003501
    31  H   -0.000014   0.000004   0.000043   0.000019   0.000001   0.000039
    32  H   -0.000012  -0.000001   0.000004   0.000000   0.000000  -0.000002
    33  H   -0.000006  -0.000000   0.000013   0.000000  -0.000000   0.000004
    34  H   -0.000728   0.000408  -0.000365  -0.000010   0.000013   0.000112
    35  H    0.000007   0.000017  -0.000951   0.001160  -0.002159  -0.013290
    36  H   -0.000000   0.000000  -0.000090  -0.000019  -0.000649   0.005145
    37  H   -0.000000  -0.000000  -0.000002   0.000026  -0.000067  -0.000413
    38  H    0.000000   0.000000  -0.000054  -0.000043   0.000668   0.005201
    39  H    0.000004   0.000020  -0.002517  -0.004272   0.004047  -0.011843
               7          8          9         10         11         12
     1  Zn  -0.004614   0.128857  -0.036616  -0.096713   0.029732   0.048788
     2  N   -0.057277  -0.115649   0.024914   0.105237  -0.056190  -0.020041
     3  C   -0.126782   0.996108  -0.087953   0.188236   0.017109   0.008347
     4  C   -0.164446  -1.202362   0.024328  -0.303759  -0.004845  -0.045484
     5  C   -1.082969  -0.233694  -0.070907   0.159234   0.012106   0.020609
     6  C    0.321302  -1.679934  -0.044964  -0.438016  -0.056992   0.012519
     7  C    7.196591   0.097698  -0.021399   0.100054  -0.043983  -0.187866
     8  C    0.097698   8.959848  -0.063056  -1.852739   0.208270   0.897085
     9  N   -0.021399  -0.063056   7.130242   0.239690  -0.053810  -0.636751
    10  C    0.100054  -1.852739   0.239690   9.704808   0.060524  -1.185302
    11  O   -0.043983   0.208270  -0.053810   0.060524   8.284913   0.111857
    12  C   -0.187866   0.897085  -0.636751  -1.185302   0.111857   8.169662
    13  C    0.122174  -0.627464   0.659580   0.711523   0.036046  -2.215874
    14  C   -0.063338   0.164584   0.081213  -0.187179   0.001789  -0.091320
    15  C   -0.003167  -0.003467   0.022815  -0.265799   0.002681  -0.578409
    16  C   -0.034630   0.039266  -0.095702   0.132958  -0.040614  -0.190610
    17  C   -0.118831   0.339863  -0.318138  -1.117560  -0.068625   1.294461
    18  C   -0.457146   0.020140   0.034016   0.106523  -0.001972  -0.050864
    19  C    1.117058  -0.137785   0.002562  -0.113473   0.002331   0.009598
    20  C   -0.149845   0.008245   0.003557   0.016503   0.000206  -0.005721
    21  C    0.068695   0.008175   0.000308  -0.003234   0.000025   0.000052
    22  C    0.076069  -0.008692  -0.002522   0.001508  -0.000163   0.001387
    23  C   -0.567281   0.189228  -0.005060   0.036312  -0.001032  -0.002189
    24  H    0.002613   0.005128  -0.001886   0.003012   0.001533   0.000291
    25  H    0.012911  -0.009948   0.005856   0.024129   0.011024   0.017458
    26  H    0.001145   0.009970  -0.000993   0.006199  -0.000169   0.000071
    27  H    0.000321   0.000606   0.000252  -0.000843  -0.000012   0.000012
    28  H    0.423967  -0.059372  -0.002847   0.018499  -0.000624   0.001168
    29  H   -0.039826   0.064391   0.316507  -0.075482   0.005440   0.074685
    30  H    0.005716   0.017748  -0.003268  -0.011316  -0.001224  -0.121216
    31  H    0.000200  -0.000123   0.000263   0.002739   0.000048   0.027763
    32  H   -0.000009  -0.000134  -0.000019  -0.001964  -0.000009  -0.002319
    33  H    0.000061  -0.000107   0.000202   0.009088   0.000062   0.015506
    34  H    0.000292  -0.003290   0.001244  -0.032959   0.006811  -0.043530
    35  H    0.010723  -0.003171  -0.000213  -0.001168  -0.000001  -0.000082
    36  H   -0.002093  -0.000118   0.000001  -0.000016   0.000000   0.000001
    37  H   -0.000382  -0.000033   0.000000   0.000000   0.000000   0.000000
    38  H   -0.001173   0.000063   0.000001  -0.000001   0.000000  -0.000000
    39  H   -0.003314  -0.002486   0.000009  -0.000133  -0.000000   0.000002
              13         14         15         16         17         18
     1  Zn  -0.085173  -0.002660  -0.004234   0.005223   0.019946  -0.005080
     2  N    0.004389   0.020619   0.002690  -0.003646   0.022155   0.016393
     3  C   -0.001143   0.004108  -0.002599  -0.002177  -0.028046  -0.096466
     4  C    0.022234  -0.003032  -0.000605  -0.005476  -0.038424   0.145884
     5  C   -0.040156  -0.007349  -0.000166   0.000605   0.016458  -0.064771
     6  C    0.038160  -0.023520   0.000146  -0.007285  -0.027929  -0.181147
     7  C    0.122174  -0.063338  -0.003167  -0.034630  -0.118831  -0.457146
     8  C   -0.627464   0.164584  -0.003467   0.039266   0.339863   0.020140
     9  N    0.659580   0.081213   0.022815  -0.095702  -0.318138   0.034016
    10  C    0.711523  -0.187179  -0.265799   0.132958  -1.117560   0.106523
    11  O    0.036046   0.001789   0.002681  -0.040614  -0.068625  -0.001972
    12  C   -2.215874  -0.091320  -0.578409  -0.190610   1.294461  -0.050864
    13  C   12.652149  -2.432252   0.330289  -0.704736  -2.475106   0.024298
    14  C   -2.432252   7.689708   0.316750   0.170003   0.176865  -0.001653
    15  C    0.330289   0.316750   5.452749   0.338127   0.066580   0.000168
    16  C   -0.704736   0.170003   0.338127   5.795982   0.386037  -0.000608
    17  C   -2.475106   0.176865   0.066580   0.386037   7.809302  -0.009187
    18  C    0.024298  -0.001653   0.000168  -0.000608  -0.009187   6.399352
    19  C    0.007183   0.003542   0.000101  -0.000260  -0.002366  -0.325397
    20  C    0.001821  -0.000000   0.000012   0.000035  -0.000381  -0.033290
    21  C    0.000418   0.000098   0.000006  -0.000012  -0.000028  -0.451429
    22  C   -0.001250  -0.000146  -0.000008   0.000036   0.000221  -0.311487
    23  C   -0.002446  -0.000827  -0.000005   0.000027   0.000779   0.087928
    24  H   -0.001207   0.000344  -0.000009  -0.000120   0.000169  -0.000549
    25  H   -0.020568  -0.001996  -0.000410  -0.001292   0.001964  -0.001163
    26  H   -0.000171  -0.000015  -0.000000   0.000003   0.000065   0.002656
    27  H    0.000023  -0.000001   0.000000  -0.000001  -0.000013   0.010026
    28  H   -0.003963  -0.001056  -0.000043   0.000170   0.001565  -0.006949
    29  H   -0.051075  -0.004458  -0.002725   0.003263   0.034537   0.000885
    30  H    0.535145  -0.090940   0.010515  -0.000430  -0.008929   0.000005
    31  H   -0.031168   0.413555  -0.063228   0.011930   0.002206   0.000000
    32  H    0.018403  -0.073406   0.469474  -0.061442   0.014093   0.000000
    33  H   -0.006296   0.020513  -0.074728   0.428499  -0.028523   0.000000
    34  H    0.022162  -0.004413   0.022240  -0.037662   0.437090   0.000023
    35  H    0.000100   0.000015   0.000000  -0.000005  -0.000051  -0.065237
    36  H    0.000001   0.000000   0.000000  -0.000000  -0.000000   0.016033
    37  H   -0.000000  -0.000000  -0.000000   0.000000   0.000000  -0.002323
    38  H    0.000000   0.000000   0.000000  -0.000000  -0.000000   0.013769
    39  H    0.000002   0.000000  -0.000000  -0.000000  -0.000002  -0.057550
              19         20         21         22         23         24
     1  Zn  -0.000911  -0.000036  -0.000012   0.000582   0.002041   0.040081
     2  N   -0.001126   0.000248   0.000054  -0.000351   0.001821   0.298792
     3  C   -0.186935  -0.023983  -0.001009   0.013534   0.179310  -0.043251
     4  C    0.280095   0.006786   0.001315  -0.124030  -0.258980   0.030095
     5  C   -0.867385   0.044866   0.005050  -0.109949   1.210656   0.002759
     6  C   -0.154480   0.274008  -0.221646   0.527668  -1.018445  -0.000642
     7  C    1.117058  -0.149845   0.068695   0.076069  -0.567281   0.002613
     8  C   -0.137785   0.008245   0.008175  -0.008692   0.189228   0.005128
     9  N    0.002562   0.003557   0.000308  -0.002522  -0.005060  -0.001886
    10  C   -0.113473   0.016503  -0.003234   0.001508   0.036312   0.003012
    11  O    0.002331   0.000206   0.000025  -0.000163  -0.001032   0.001533
    12  C    0.009598  -0.005721   0.000052   0.001387  -0.002189   0.000291
    13  C    0.007183   0.001821   0.000418  -0.001250  -0.002446  -0.001207
    14  C    0.003542  -0.000000   0.000098  -0.000146  -0.000827   0.000344
    15  C    0.000101   0.000012   0.000006  -0.000008  -0.000005  -0.000009
    16  C   -0.000260   0.000035  -0.000012   0.000036   0.000027  -0.000120
    17  C   -0.002366  -0.000381  -0.000028   0.000221   0.000779   0.000169
    18  C   -0.325397  -0.033290  -0.451429  -0.311487   0.087928  -0.000549
    19  C    9.267096  -0.947217   0.445670  -0.554191  -1.771397   0.000211
    20  C   -0.947217   6.529169   0.060180   0.386807  -0.445033   0.000003
    21  C    0.445670   0.060180   5.334711   0.110172   0.386127  -0.000000
    22  C   -0.554191   0.386807   0.110172   7.033556  -1.299998  -0.000000
    23  C   -1.771397  -0.445033   0.386127  -1.299998   9.536831  -0.000137
    24  H    0.000211   0.000003  -0.000000  -0.000000  -0.000137   0.341909
    25  H    0.000513   0.000009  -0.000001   0.000017  -0.000160  -0.005288
    26  H    0.001051   0.000067  -0.000013  -0.000010  -0.000975   0.004264
    27  H    0.000886  -0.001266   0.000763  -0.011240   0.008920  -0.000009
    28  H    0.014112  -0.006492  -0.000729   0.000374  -0.009754   0.000012
    29  H   -0.000314  -0.000696   0.000041  -0.000090  -0.000238   0.000036
    30  H   -0.000002  -0.000011   0.000000  -0.000000  -0.000004   0.000007
    31  H    0.000000  -0.000000  -0.000000  -0.000000   0.000000  -0.000000
    32  H   -0.000000   0.000000  -0.000000   0.000000  -0.000000   0.000000
    33  H   -0.000000   0.000000  -0.000000  -0.000000   0.000000   0.000000
    34  H   -0.000011  -0.000001   0.000000  -0.000000   0.000002   0.000000
    35  H    0.473191  -0.057320   0.013677   0.000830   0.001226  -0.000000
    36  H   -0.048324   0.449806  -0.063783   0.020087  -0.008909   0.000000
    37  H    0.019494  -0.064185   0.459811  -0.065546   0.017675  -0.000000
    38  H   -0.011842   0.021097  -0.067175   0.433670  -0.025989   0.000000
    39  H    0.002973  -0.000235   0.014402  -0.023192   0.440116   0.000000
              25         26         27         28         29         30
     1  Zn   0.035201  -0.001857   0.000015  -0.000061   0.000940   0.000134
     2  N    0.297405   0.000881  -0.001039  -0.000425   0.003904  -0.000650
     3  C   -0.010638  -0.132317   0.002172  -0.010347  -0.000446  -0.002406
     4  C    0.016799   0.441464  -0.013245   0.008295  -0.006074  -0.000341
     5  C   -0.006880   0.018963   0.414532   0.010779   0.001831  -0.000772
     6  C    0.006384   0.013343  -0.043404  -0.005725  -0.010068   0.003501
     7  C    0.012911   0.001145   0.000321   0.423967  -0.039826   0.005716
     8  C   -0.009948   0.009970   0.000606  -0.059372   0.064391   0.017748
     9  N    0.005856  -0.000993   0.000252  -0.002847   0.316507  -0.003268
    10  C    0.024129   0.006199  -0.000843   0.018499  -0.075482  -0.011316
    11  O    0.011024  -0.000169  -0.000012  -0.000624   0.005440  -0.001224
    12  C    0.017458   0.000071   0.000012   0.001168   0.074685  -0.121216
    13  C   -0.020568  -0.000171   0.000023  -0.003963  -0.051075   0.535145
    14  C   -0.001996  -0.000015  -0.000001  -0.001056  -0.004458  -0.090940
    15  C   -0.000410  -0.000000   0.000000  -0.000043  -0.002725   0.010515
    16  C   -0.001292   0.000003  -0.000001   0.000170   0.003263  -0.000430
    17  C    0.001964   0.000065  -0.000013   0.001565   0.034537  -0.008929
    18  C   -0.001163   0.002656   0.010026  -0.006949   0.000885   0.000005
    19  C    0.000513   0.001051   0.000886   0.014112  -0.000314  -0.000002
    20  C    0.000009   0.000067  -0.001266  -0.006492  -0.000696  -0.000011
    21  C   -0.000001  -0.000013   0.000763  -0.000729   0.000041   0.000000
    22  C    0.000017  -0.000010  -0.011240   0.000374  -0.000090  -0.000000
    23  C   -0.000160  -0.000975   0.008920  -0.009754  -0.000238  -0.000004
    24  H   -0.005288   0.004264  -0.000009   0.000012   0.000036   0.000007
    25  H    0.323835  -0.000304   0.000015  -0.000076  -0.000817  -0.000105
    26  H   -0.000304   0.510494  -0.004663   0.000081   0.000027  -0.000000
    27  H    0.000015  -0.004663   0.487939  -0.000237  -0.000002  -0.000000
    28  H   -0.000076   0.000081  -0.000237   0.478061   0.002508   0.000025
    29  H   -0.000817   0.000027  -0.000002   0.002508   0.376640   0.009351
    30  H   -0.000105  -0.000000  -0.000000   0.000025   0.009351   0.575100
    31  H   -0.000000   0.000000  -0.000000   0.000000  -0.000041  -0.004303
    32  H   -0.000000  -0.000000   0.000000  -0.000000  -0.000007  -0.000350
    33  H   -0.000000  -0.000000   0.000000   0.000000   0.000001   0.000084
    34  H   -0.000085   0.000000   0.000000   0.000002   0.000012  -0.000332
    35  H    0.000000  -0.000000   0.000097   0.001400  -0.000012   0.000000
    36  H   -0.000000   0.000000  -0.000000   0.000045   0.000000   0.000000
    37  H    0.000000  -0.000000   0.000000   0.000000   0.000000   0.000000
    38  H    0.000000   0.000000   0.000038  -0.000000   0.000000  -0.000000
    39  H   -0.000000   0.000043   0.001623   0.000101  -0.000000   0.000000
              31         32         33         34         35         36
     1  Zn  -0.000014  -0.000012  -0.000006  -0.000728   0.000007  -0.000000
     2  N    0.000004  -0.000001  -0.000000   0.000408   0.000017   0.000000
     3  C    0.000043   0.000004   0.000013  -0.000365  -0.000951  -0.000090
     4  C    0.000019   0.000000   0.000000  -0.000010   0.001160  -0.000019
     5  C    0.000001   0.000000  -0.000000   0.000013  -0.002159  -0.000649
     6  C    0.000039  -0.000002   0.000004   0.000112  -0.013290   0.005145
     7  C    0.000200  -0.000009   0.000061   0.000292   0.010723  -0.002093
     8  C   -0.000123  -0.000134  -0.000107  -0.003290  -0.003171  -0.000118
     9  N    0.000263  -0.000019   0.000202   0.001244  -0.000213   0.000001
    10  C    0.002739  -0.001964   0.009088  -0.032959  -0.001168  -0.000016
    11  O    0.000048  -0.000009   0.000062   0.006811  -0.000001   0.000000
    12  C    0.027763  -0.002319   0.015506  -0.043530  -0.000082   0.000001
    13  C   -0.031168   0.018403  -0.006296   0.022162   0.000100   0.000001
    14  C    0.413555  -0.073406   0.020513  -0.004413   0.000015   0.000000
    15  C   -0.063228   0.469474  -0.074728   0.022240   0.000000   0.000000
    16  C    0.011930  -0.061442   0.428499  -0.037662  -0.000005  -0.000000
    17  C    0.002206   0.014093  -0.028523   0.437090  -0.000051  -0.000000
    18  C    0.000000   0.000000   0.000000   0.000023  -0.065237   0.016033
    19  C    0.000000  -0.000000  -0.000000  -0.000011   0.473191  -0.048324
    20  C   -0.000000   0.000000   0.000000  -0.000001  -0.057320   0.449806
    21  C   -0.000000  -0.000000  -0.000000   0.000000   0.013677  -0.063783
    22  C   -0.000000   0.000000  -0.000000  -0.000000   0.000830   0.020087
    23  C    0.000000  -0.000000   0.000000   0.000002   0.001226  -0.008909
    24  H   -0.000000   0.000000   0.000000   0.000000  -0.000000   0.000000
    25  H   -0.000000  -0.000000  -0.000000  -0.000085   0.000000  -0.000000
    26  H    0.000000  -0.000000  -0.000000   0.000000  -0.000000   0.000000
    27  H   -0.000000   0.000000   0.000000   0.000000   0.000097  -0.000000
    28  H    0.000000  -0.000000   0.000000   0.000002   0.001400   0.000045
    29  H   -0.000041  -0.000007   0.000001   0.000012  -0.000012   0.000000
    30  H   -0.004303  -0.000350   0.000084  -0.000332   0.000000   0.000000
    31  H    0.523244  -0.004509  -0.000242   0.000064   0.000000   0.000000
    32  H   -0.004509   0.514840  -0.004464  -0.000230  -0.000000   0.000000
    33  H   -0.000242  -0.004464   0.518151  -0.004532   0.000000  -0.000000
    34  H    0.000064  -0.000230  -0.004532   0.507995  -0.000000   0.000000
    35  H    0.000000  -0.000000   0.000000  -0.000000   0.527319  -0.004677
    36  H    0.000000   0.000000  -0.000000   0.000000  -0.004677   0.508639
    37  H   -0.000000  -0.000000   0.000000  -0.000000  -0.000256  -0.004101
    38  H    0.000000  -0.000000   0.000000   0.000000   0.000072  -0.000231
    39  H    0.000000  -0.000000   0.000000   0.000000  -0.000312   0.000069
              37         38         39
     1  Zn  -0.000000   0.000000   0.000004
     2  N   -0.000000   0.000000   0.000020
     3  C   -0.000002  -0.000054  -0.002517
     4  C    0.000026  -0.000043  -0.004272
     5  C   -0.000067   0.000668   0.004047
     6  C   -0.000413   0.005201  -0.011843
     7  C   -0.000382  -0.001173  -0.003314
     8  C   -0.000033   0.000063  -0.002486
     9  N    0.000000   0.000001   0.000009
    10  C    0.000000  -0.000001  -0.000133
    11  O    0.000000   0.000000  -0.000000
    12  C    0.000000  -0.000000   0.000002
    13  C   -0.000000   0.000000   0.000002
    14  C   -0.000000   0.000000   0.000000
    15  C   -0.000000   0.000000  -0.000000
    16  C    0.000000  -0.000000  -0.000000
    17  C    0.000000  -0.000000  -0.000002
    18  C   -0.002323   0.013769  -0.057550
    19  C    0.019494  -0.011842   0.002973
    20  C   -0.064185   0.021097  -0.000235
    21  C    0.459811  -0.067175   0.014402
    22  C   -0.065546   0.433670  -0.023192
    23  C    0.017675  -0.025989   0.440116
    24  H   -0.000000   0.000000   0.000000
    25  H    0.000000   0.000000  -0.000000
    26  H   -0.000000   0.000000   0.000043
    27  H    0.000000   0.000038   0.001623
    28  H    0.000000  -0.000000   0.000101
    29  H    0.000000   0.000000  -0.000000
    30  H    0.000000  -0.000000   0.000000
    31  H   -0.000000   0.000000   0.000000
    32  H   -0.000000  -0.000000  -0.000000
    33  H    0.000000   0.000000   0.000000
    34  H   -0.000000   0.000000   0.000000
    35  H   -0.000256   0.000072  -0.000312
    36  H   -0.004101  -0.000231   0.000069
    37  H    0.497744  -0.003861  -0.000264
    38  H   -0.003861   0.505443  -0.004566
    39  H   -0.000264  -0.004566   0.525175
 Mulliken charges:
               1
     1  Zn   0.524228
     2  N   -0.259385
     3  C    0.445163
     4  C   -0.409514
     5  C   -0.446669
     6  C    1.278914
     7  C   -0.427220
     8  C   -0.151651
     9  N   -0.101455
    10  C    0.060884
    11  O   -0.462241
    12  C    0.666254
    13  C   -0.486050
    14  C   -0.074144
    15  C   -0.035743
    16  C   -0.125456
    17  C   -0.382216
    18  C    1.246170
    19  C   -0.524251
    20  C   -0.067714
    21  C   -0.100677
    22  C   -0.093652
    23  C   -0.680141
    24  H    0.321840
    25  H    0.306210
    26  H    0.130698
    27  H    0.147735
    28  H    0.147534
    29  H    0.297374
    30  H    0.089269
    31  H    0.121507
    32  H    0.132063
    33  H    0.126713
    34  H    0.129677
    35  H    0.119070
    36  H    0.133183
    37  H    0.146682
    38  H    0.134912
    39  H    0.122102
 Sum of Mulliken charges =   2.00000
 Mulliken charges with hydrogens summed into heavy atoms:
               1
     1  Zn   0.524228
     2  N    0.368665
     3  C    0.445163
     4  C   -0.278816
     5  C   -0.298934
     6  C    1.278914
     7  C   -0.279686
     8  C   -0.151651
     9  N    0.195919
[...]
    34  H    0.000311   0.000100   0.001161  -0.019503   0.007101  -0.056466
    35  H    0.066801   0.006807  -0.000240  -0.001146  -0.000003   0.000189
    36  H   -0.004090  -0.000224   0.000001  -0.000004   0.000000   0.000001
    37  H   -0.000507  -0.000039   0.000000  -0.000000   0.000000   0.000000
    38  H   -0.000147   0.000135   0.000000  -0.000001   0.000000   0.000000
    39  H   -0.010880  -0.003800   0.000004  -0.000132  -0.000001  -0.000001
              13         14         15         16         17         18
     1  Zn  -0.065815  -0.005580  -0.003473   0.008661   0.008381  -0.002931
     2  N   -0.031709   0.015045   0.007074  -0.012112   0.066771   0.015426
     3  C    0.201460  -0.036906   0.004937  -0.001189  -0.149123   0.206057
     4  C    0.028604  -0.007403   0.002099  -0.006078  -0.024762  -0.181188
     5  C   -0.013894  -0.001887  -0.000193  -0.001803   0.004837   1.557872
     6  C    0.004761  -0.021737  -0.002525  -0.004938  -0.019989  -1.651833
     7  C   -0.035252  -0.054645  -0.005360  -0.021092  -0.013827  -1.131704
     8  C   -0.619500   0.209651  -0.028486   0.040916   0.194644   0.005973
     9  N    0.579110   0.034022   0.027356  -0.086913  -0.208112   0.032708
    10  C    0.902157  -0.094277  -0.354118   0.191511  -1.489153   0.059993
    11  O   -0.014313  -0.013205   0.004473  -0.041210  -0.022834  -0.000378
    12  C   -2.337336  -0.223690  -0.509923  -0.148562   1.409723  -0.053550
    13  C   12.423357  -2.278612   0.223834  -0.571656  -2.434519   0.028952
    14  C   -2.278612   7.710685   0.341760   0.205178   0.055435  -0.000177
    15  C    0.223834   0.341760   5.482719   0.294763   0.247431   0.000408
    16  C   -0.571656   0.205178   0.294763   5.697489   0.266526  -0.001161
    17  C   -2.434519   0.055435   0.247431   0.266526   8.094382  -0.010944
    18  C    0.028952  -0.000177   0.000408  -0.001161  -0.010944   7.728342
    19  C    0.004650   0.002809   0.000016  -0.000351  -0.000515  -0.058889
    20  C    0.000676  -0.000084  -0.000011   0.000046  -0.000104  -0.072154
    21  C    0.000336   0.000091   0.000011  -0.000021   0.000077  -0.570698
    22  C   -0.001020  -0.000126  -0.000017   0.000053  -0.000052  -0.224983
    23  C   -0.002632  -0.000814   0.000037   0.000061   0.001548  -0.922704
    24  H   -0.002585   0.000650   0.000075  -0.000155   0.002262   0.000468
    25  H    0.006985  -0.000328  -0.000876   0.000923  -0.010777  -0.001331
    26  H   -0.000096  -0.000004  -0.000001   0.000005   0.000040  -0.003854
    27  H    0.000033  -0.000001   0.000000  -0.000001  -0.000017   0.025264
    28  H   -0.004066  -0.000825  -0.000072   0.000210   0.001168  -0.007978
    29  H   -0.029841   0.007519  -0.001790   0.002696   0.014306  -0.003176
    30  H    0.583527  -0.066233   0.012931   0.000619  -0.039641   0.000080
    31  H   -0.049195   0.401452  -0.055339   0.014186   0.004603  -0.000000
    32  H    0.014024  -0.063665   0.445096  -0.056082   0.016387   0.000000
    33  H   -0.002338   0.018468  -0.062282   0.407525  -0.038754   0.000000
    34  H    0.020960  -0.004116   0.018279  -0.030785   0.418371   0.000016
    35  H   -0.000036   0.000003  -0.000002  -0.000001  -0.000031  -0.079453
    36  H    0.000001   0.000000   0.000000  -0.000000  -0.000000   0.020481
    37  H   -0.000000  -0.000000  -0.000000   0.000000   0.000000  -0.001865
    38  H    0.000000   0.000000   0.000000  -0.000000  -0.000000   0.018439
    39  H    0.000000  -0.000000  -0.000000  -0.000000  -0.000002  -0.080057
              19         20         21         22         23         24
     1  Zn  -0.000658   0.000079  -0.000025   0.000377   0.000844  -0.019196
     2  N    0.004900  -0.000030   0.000341  -0.001591   0.001802   0.323185
     3  C   -0.172768  -0.023279  -0.014266   0.082460  -0.039501  -0.018286
     4  C   -0.080477  -0.017204   0.003598  -0.106461   0.183758  -0.001919
     5  C    0.492039   0.221741  -0.007987  -0.036263  -0.560901   0.006868
     6  C   -0.677322   0.299283  -0.198505   0.548832   0.096740  -0.007995
     7  C   -0.067639  -0.344106   0.057826   0.003265   0.605635   0.005195
     8  C   -0.026809  -0.021796   0.019712  -0.049394   0.146320   0.007084
     9  N   -0.009618   0.005097   0.000048  -0.001890   0.002016  -0.002194
    10  C   -0.117389   0.010037  -0.002704   0.001532   0.052053  -0.000138
    11  O    0.001515   0.000128   0.000044  -0.000201  -0.000138   0.005781
    12  C   -0.002414  -0.004670   0.000327   0.000327   0.006327   0.005060
    13  C    0.004650   0.000676   0.000336  -0.001020  -0.002632  -0.002585
    14  C    0.002809  -0.000084   0.000091  -0.000126  -0.000814   0.000650
    15  C    0.000016  -0.000011   0.000011  -0.000017   0.000037   0.000075
    16  C   -0.000351   0.000046  -0.000021   0.000053   0.000061  -0.000155
    17  C   -0.000515  -0.000104   0.000077  -0.000052   0.001548   0.002262
    18  C   -0.058889  -0.072154  -0.570698  -0.224983  -0.922704   0.000468
    19  C   10.160599  -0.683757   0.510913  -0.735831  -2.432760   0.000767
    20  C   -0.683757   6.603365   0.063039   0.543018  -0.784422   0.000030
    21  C    0.510913   0.063039   5.396100   0.016913   0.510095   0.000007
    22  C   -0.735831   0.543018   0.016913   7.566317  -1.800755  -0.000101
    23  C   -2.432760  -0.784422   0.510095  -1.800755  11.215169  -0.000760
    24  H    0.000767   0.000030   0.000007  -0.000101  -0.000760   0.342621
    25  H   -0.000171   0.000034  -0.000011   0.000053   0.000117  -0.020881
    26  H    0.000454   0.000128  -0.000030  -0.000290  -0.000576   0.002470
    27  H    0.000851  -0.001258   0.000919  -0.006024   0.006702  -0.000061
    28  H    0.007140  -0.003475  -0.000499   0.000239  -0.009100   0.000012
    29  H    0.003287  -0.000249   0.000024  -0.000035  -0.001424  -0.000018
    30  H    0.000001  -0.000010  -0.000000   0.000000  -0.000005  -0.000015
    31  H    0.000000  -0.000000   0.000000  -0.000000  -0.000000  -0.000000
    32  H   -0.000000   0.000000  -0.000000   0.000000  -0.000000  -0.000000
    33  H   -0.000000   0.000000   0.000000  -0.000000   0.000000   0.000000
    34  H   -0.000010  -0.000001  -0.000000   0.000000   0.000002  -0.000002
    35  H    0.451288  -0.047525   0.014373  -0.001938   0.002291  -0.000000
    36  H   -0.051497   0.429578  -0.057777   0.020608  -0.009490   0.000000
    37  H    0.016591  -0.056532   0.436312  -0.057246   0.015590  -0.000000
    38  H   -0.009922   0.019285  -0.059956   0.409449  -0.026633   0.000000
    39  H   -0.008843  -0.001698   0.015153   0.006038   0.429232  -0.000000
              25         26         27         28         29         30
     1  Zn   0.012518  -0.000981  -0.000012  -0.000017   0.000341  -0.000018
     2  N    0.326916   0.009402  -0.000872  -0.001351   0.001427  -0.000632
     3  C   -0.009897  -0.236715   0.014104   0.005678  -0.016924  -0.000422
     4  C    0.036368   0.541619  -0.023364   0.016057  -0.016145  -0.001364
     5  C   -0.010219  -0.022522   0.464690  -0.019456   0.006550  -0.000394
     6  C    0.001571   0.062234  -0.113715  -0.013929   0.001564   0.002199
     7  C    0.003424   0.020538  -0.019585   0.457289  -0.017760  -0.000228
     8  C   -0.050159  -0.023231   0.006186  -0.091006   0.045197   0.006292
     9  N    0.026369  -0.000554   0.000154  -0.004778   0.328875   0.004165
    10  C    0.057295   0.006799  -0.000624   0.018108  -0.025700   0.046334
    11  O   -0.015824  -0.000030  -0.000008  -0.000715   0.003407  -0.001484
    12  C   -0.008247   0.000122  -0.000045   0.002097   0.020878  -0.211743
    13  C    0.006985  -0.000096   0.000033  -0.004066  -0.029841   0.583527
    14  C   -0.000328  -0.000004  -0.000001  -0.000825   0.007519  -0.066233
    15  C   -0.000876  -0.000001   0.000000  -0.000072  -0.001790   0.012931
    16  C    0.000923   0.000005  -0.000001   0.000210   0.002696   0.000619
    17  C   -0.010777   0.000040  -0.000017   0.001168   0.014306  -0.039641
    18  C   -0.001331  -0.003854   0.025264  -0.007978  -0.003176   0.000080
    19  C   -0.000171   0.000454   0.000851   0.007140   0.003287   0.000001
    20  C    0.000034   0.000128  -0.001258  -0.003475  -0.000249  -0.000010
    21  C   -0.000011  -0.000030   0.000919  -0.000499   0.000024  -0.000000
    22  C    0.000053  -0.000290  -0.006024   0.000239  -0.000035   0.000000
    23  C    0.000117  -0.000576   0.006702  -0.009100  -0.001424  -0.000005
    24  H   -0.020881   0.002470  -0.000061   0.000012  -0.000018  -0.000015
    25  H    0.323903  -0.000061   0.000021  -0.000049  -0.000291  -0.000130
    26  H   -0.000061   0.492162  -0.005375   0.000053   0.000020  -0.000000
    27  H    0.000021  -0.005375   0.477420  -0.000177  -0.000004  -0.000000
    28  H   -0.000049   0.000053  -0.000177   0.475783   0.005096   0.000036
    29  H   -0.000291   0.000020  -0.000004   0.005096   0.341150   0.000549
    30  H   -0.000130  -0.000000  -0.000000   0.000036   0.000549   0.538529
    31  H    0.000001   0.000000   0.000000   0.000000   0.000021  -0.005330
    32  H    0.000000  -0.000000   0.000000  -0.000000  -0.000001  -0.000264
    33  H   -0.000001  -0.000000  -0.000000  -0.000000  -0.000002   0.000066
    34  H    0.000011   0.000000   0.000000   0.000002   0.000075  -0.000265
    35  H    0.000000  -0.000000   0.000076   0.001035  -0.000003   0.000000
    36  H   -0.000000   0.000000  -0.000000   0.000050   0.000000  -0.000000
    37  H    0.000000  -0.000000  -0.000000  -0.000000   0.000000   0.000000
    38  H   -0.000000   0.000000   0.000041  -0.000000  -0.000000  -0.000000
    39  H    0.000000   0.000050   0.001458   0.000073   0.000000   0.000000
              31         32         33         34         35         36
     1  Zn  -0.000012  -0.000007  -0.000015  -0.000625   0.000006  -0.000000
     2  N   -0.000004  -0.000003   0.000001   0.000083   0.000004   0.000000
     3  C    0.000053   0.000006   0.000035  -0.000482   0.000237  -0.000065
     4  C    0.000020   0.000000   0.000002  -0.000144   0.000600   0.000018
     5  C   -0.000000  -0.000000  -0.000000   0.000040  -0.027512   0.000410
     6  C    0.000038  -0.000001   0.000003   0.000205  -0.039157   0.006528
     7  C    0.000156  -0.000004   0.000045   0.000311   0.066801  -0.004090
     8  C    0.000429  -0.000080  -0.000193   0.000100   0.006807  -0.000224
     9  N   -0.000056  -0.000067   0.000207   0.001161  -0.000240   0.000001
    10  C    0.001063  -0.002080   0.007000  -0.019503  -0.001146  -0.000004
    11  O    0.000038  -0.000006   0.000064   0.007101  -0.000003   0.000000
    12  C    0.035497  -0.002118   0.022372  -0.056466   0.000189   0.000001
    13  C   -0.049195   0.014024  -0.002338   0.020960  -0.000036   0.000001
    14  C    0.401452  -0.063665   0.018468  -0.004116   0.000003   0.000000
    15  C   -0.055339   0.445096  -0.062282   0.018279  -0.000002   0.000000
    16  C    0.014186  -0.056082   0.407525  -0.030785  -0.000001  -0.000000
    17  C    0.004603   0.016387  -0.038754   0.418371  -0.000031  -0.000000
    18  C   -0.000000   0.000000   0.000000   0.000016  -0.079453   0.020481
    19  C    0.000000  -0.000000  -0.000000  -0.000010   0.451288  -0.051497
    20  C   -0.000000   0.000000   0.000000  -0.000001  -0.047525   0.429578
    21  C    0.000000  -0.000000   0.000000  -0.000000   0.014373  -0.057777
    22  C   -0.000000   0.000000  -0.000000   0.000000  -0.001938   0.020608
    23  C   -0.000000  -0.000000   0.000000   0.000002   0.002291  -0.009490
    24  H   -0.000000  -0.000000   0.000000  -0.000002  -0.000000   0.000000
    25  H    0.000001   0.000000  -0.000001   0.000011   0.000000  -0.000000
    26  H    0.000000  -0.000000  -0.000000   0.000000  -0.000000   0.000000
    27  H    0.000000   0.000000  -0.000000   0.000000   0.000076  -0.000000
    28  H    0.000000  -0.000000  -0.000000   0.000002   0.001035   0.000050
    29  H    0.000021  -0.000001  -0.000002   0.000075  -0.000003   0.000000
    30  H   -0.005330  -0.000264   0.000066  -0.000265   0.000000  -0.000000
    31  H    0.513497  -0.005595  -0.000192   0.000055  -0.000000   0.000000
    32  H   -0.005595   0.504308  -0.005615  -0.000171  -0.000000  -0.000000
    33  H   -0.000192  -0.005615   0.509624  -0.005914   0.000000  -0.000000
    34  H    0.000055  -0.000171  -0.005914   0.501243  -0.000000   0.000000
    35  H   -0.000000  -0.000000   0.000000  -0.000000   0.520551  -0.006020
    36  H    0.000000  -0.000000  -0.000000   0.000000  -0.006020   0.501856
    37  H   -0.000000  -0.000000   0.000000  -0.000000  -0.000202  -0.005268
    38  H    0.000000  -0.000000  -0.000000  -0.000000   0.000060  -0.000185
    39  H    0.000000  -0.000000   0.000000   0.000000  -0.000267   0.000058
              37         38         39
     1  Zn  -0.000000   0.000000   0.000002
     2  N   -0.000000   0.000000   0.000018
     3  C    0.000000  -0.000114   0.000108
     4  C    0.000022  -0.000246  -0.000214
     5  C   -0.000050  -0.001121   0.023661
     6  C   -0.000682   0.006346  -0.023921
     7  C   -0.000507  -0.000147  -0.010880
     8  C   -0.000039   0.000135  -0.003800
     9  N    0.000000   0.000000   0.000004
    10  C   -0.000000  -0.000001  -0.000132
    11  O    0.000000   0.000000  -0.000001
    12  C    0.000000   0.000000  -0.000001
    13  C   -0.000000   0.000000   0.000000
    14  C   -0.000000   0.000000  -0.000000
    15  C   -0.000000   0.000000  -0.000000
    16  C    0.000000  -0.000000  -0.000000
    17  C    0.000000  -0.000000  -0.000002
    18  C   -0.001865   0.018439  -0.080057
    19  C    0.016591  -0.009922  -0.008843
    20  C   -0.056532   0.019285  -0.001698
    21  C    0.436312  -0.059956   0.015153
    22  C   -0.057246   0.409449   0.006038
    23  C    0.015590  -0.026633   0.429232
    24  H   -0.000000   0.000000  -0.000000
    25  H    0.000000  -0.000000   0.000000
    26  H   -0.000000   0.000000   0.000050
    27  H   -0.000000   0.000041   0.001458
    28  H   -0.000000  -0.000000   0.000073
    29  H    0.000000  -0.000000   0.000000
    30  H    0.000000  -0.000000   0.000000
    31  H   -0.000000   0.000000   0.000000
    32  H   -0.000000  -0.000000  -0.000000
    33  H    0.000000  -0.000000   0.000000
    34  H   -0.000000  -0.000000   0.000000
    35  H   -0.000202   0.000060  -0.000267
    36  H   -0.005268  -0.000185   0.000058
    37  H    0.489955  -0.004929  -0.000209
    38  H   -0.004929   0.498107  -0.005993
    39  H   -0.000209  -0.005993   0.519351
 Mulliken charges:
               1
     1  Zn   0.702994
     2  N   -0.422998
     3  C    0.509169
     4  C   -0.639930
     5  C   -0.451428
     6  C    1.323866
     7  C   -0.711162
     8  C    0.139391
     9  N   -0.180150
    10  C   -0.128912
    11  O   -0.447377
    12  C    0.800471
    13  C   -0.529011
    14  C   -0.128452
    15  C   -0.088832
    16  C   -0.147259
    17  C   -0.343735
    18  C    1.360530
    19  C   -0.520180
    20  C   -0.133199
    21  C   -0.133779
    22  C   -0.175264
    23  C   -0.683727
    24  H    0.371772
    25  H    0.332745
    26  H    0.158224
    27  H    0.173225
    28  H    0.167365
    29  H    0.330379
    30  H    0.132853
    31  H    0.144612
    32  H    0.155940
    33  H    0.149892
    34  H    0.150470
    35  H    0.139214
    36  H    0.155032
    37  H    0.169060
    38  H    0.157384
    39  H    0.140811
 Sum of Mulliken charges =   2.00000
 Mulliken charges with hydrogens summed into heavy atoms:
               1
     1  Zn   0.702994
     2  N    0.281518
     3  C    0.509169
     4  C   -0.481706
     5  C   -0.278203
     6  C    1.323866
     7  C   -0.543797
     8  C    0.139391
     9  N    0.150229
    10  C   -0.128912
    11  O   -0.447377
    12  C    0.800471
    13  C   -0.396158
    14  C    0.016159
    15  C    0.067108
    16  C    0.002633
    17  C   -0.193266
    18  C    1.360530
    19  C   -0.380966
    20  C    0.021833
    21  C    0.035281
    22  C   -0.017880
    23  C   -0.542917
 Electronic spatial extent (au):  <R**2>=          11299.9648
 Charge=              2.0000 electrons
 Dipole moment (field-independent basis, Debye):
    X=             -0.9841    Y=              5.4196    Z=             -2.6576  Tot=              6.1158
 Quadrupole moment (field-independent basis, Debye-Ang):
   XX=              9.4041   YY=            -61.4699   ZZ=           -123.1507
   XY=             12.4442   XZ=             -6.7053   YZ=             -0.5018
 Traceless Quadrupole moment (field-independent basis, Debye-Ang):
   XX=             67.8096   YY=             -3.0644   ZZ=            -64.7452
   XY=             12.4442   XZ=             -6.7053   YZ=             -0.5018
 Octapole moment (field-independent basis, Debye-Ang**2):
  XXX=           -230.6307  YYY=            193.7601  ZZZ=              8.5455  XYY=             94.2707
  XXY=           -143.9390  XXZ=             93.9686  XZZ=             63.0583  YZZ=             46.8469
  YYZ=            -18.1461  XYZ=              8.8480
 Hexadecapole moment (field-independent basis, Debye-Ang**3):
 XXXX=          -5974.8723 YYYY=          -2175.8032 ZZZZ=           -583.5261 XXXY=            295.7899
 XXXZ=           -363.0977 YYYX=            401.0916 YYYZ=             92.3444 ZZZX=             30.1333
 ZZZY=             32.0471 XXYY=          -1291.7279 XXZZ=          -1782.5835 YYZZ=           -482.6628
 XXYZ=              2.0399 YYXZ=              9.0256 ZZXY=             26.5405
 N-N= 2.084385529003D+03 E-N=-1.051790982583D+04  KE= 2.691457495897D+03
 1\1\GINC-CN13308\FOpt\RAPFD\6-311+G(2d,p)\C19H16N2O1Zn1(2+)\ROOT\13-Ja
 n-2022\0\\# opt=readopt apfd/6-311+g(2d,p)\\3MAX_P\\2,1\Zn,65.26510229
 68,30.5389778113,-2.8770830985\N,65.8806566808,28.8883830206,-1.677952
 9737\C,65.4492776837,28.7325769709,-0.3429613218\C,64.2210200385,28.12
 49557402,-0.0690005587\C,63.7889709418,27.9790586987,1.240998322\C,64.
 565991584,28.4370141715,2.3170002463\C,65.7919737222,29.0770495808,2.0
 409945796\C,66.2210380746,29.2179152282,0.7260121339\N,67.4769921272,2
 9.787045411,0.4590034413\C,67.6219876598,30.8319986277,-0.3740062863\O
 ,66.632001619,31.3229887282,-0.8890138587\C,69.0039995957,31.316006956
 3,-0.6049924933\C,70.0599997707,30.4159980202,-0.486998521\C,71.366999
 6753,30.8260019535,-0.6849975898\C,71.6379994319,32.1459987054,-1.0050
 040451\C,70.593999943,33.0570006751,-1.1200018117\C,69.2780010382,32.6
 580003314,-0.9159948846\C,64.0949872602,28.3080242499,3.729998845\C,65
 .0110010204,28.118004219,4.7740001366\C,64.5539999399,28.0390003691,6.
 0880005157\C,63.193999755,28.1439957773,6.3879987688\C,62.2729995768,2
 8.3409973569,5.3630000584\C,62.7200005645,28.4250073968,4.0480003955\H
 ,65.6328672603,28.0613287954,-2.222743841\H,66.8933862168,29.001025468
 9,-1.7335553787\H,63.6041267825,27.7474093283,-0.8795145218\H,62.85098
 40642,27.4706358284,1.4308491833\H,66.3962173715,29.4846785642,2.84255
 58985\H,68.226884982,29.5938700238,1.1100737953\H,69.8766606616,29.366
 0629785,-0.2745254567\H,72.1752390175,30.1079833493,-0.60132045\H,72.6
 607407836,32.4706088906,-1.1622468063\H,70.8031729651,34.0942269738,-1
 .3570540868\H,68.4641347485,33.3709342219,-0.9891756895\H,66.068139718
 2,27.9919490406,4.5694323316\H,65.2666219687,27.869353576,6.8875406083
 \H,62.8607354938,28.0720738694,7.4177509618\H,61.2163850423,28.4434172
 743,5.5812179863\H,61.9989771468,28.6074087244,3.2582901669\\Version=E
 S64L-G09RevE.01\State=1-A\HF=-2696.4466469\RMSD=6.383e-09\RMSF=2.625e-
 05\Dipole=-1.3616873,-1.3938988,-1.4115121\Quadrupole=5.9787818,-37.71
 41865,31.7354047,22.0410328,-20.9094305,-19.6707905\PG=C01 [X(C19H16N2
 O1Zn1)]\\@


 AN OPTIMIST IS A GUY
 THAT HAS NEVER HAD
 MUCH EXPERIENCE
   (CERTAIN MAXIMS OF ARCHY  -- DON MARQUIS)
 Job cpu time:       0 days 21 hours 34 minutes  5.6 seconds.
 File lengths (MBytes):  RWF=    335 Int=      0 D2E=      0 Chk=     44 Scr=      1
 Normal termination of Gaussian 09 at Thu Jan 13 10:04:42 2022.
