
    -----------------------------------------------------------------------
          Psi4: An Open-Source Ab Initio Electronic Structure Package
                               Psi4 1.5 release

                         Git: Rev {HEAD} e9f4d6d 


    D. G. A. Smith, L. A. Burns, A. C. Simmonett, R. M. Parrish,
    M. C. Schieber, R. Galvelis, P. Kraus, H. Kruse, R. Di Remigio,
    A. Alenaizan, A. M. James, S. Lehtola, J. P. Misiewicz, M. Scheurer,
    R. A. Shaw, J. B. Schriber, Y. Xie, Z. L. Glick, D. A. Sirianni,
    J. S. O'Brien, J. M. Waldrop, A. Kumar, E. G. Hohenstein,
    B. P. Pritchard, B. R. Brooks, H. F. Schaefer III, A. Yu. Sokolov,
    K. Patkowski, A. E. DePrince III, U. Bozkaya, R. A. King,
    F. A. Evangelista, J. M. Turney, T. D. Crawford, C. D. Sherrill,
    J. Chem. Phys. 152(18) 184108 (2020). https://doi.org/10.1063/5.0006002

                            Additional Code Authors
    E. T. Seidl, C. L. Janssen, E. F. Valeev, M. L. Leininger,
    J. F. Gonthier, R. M. Richard, H. R. McAlexander, M. Saitow, X. Wang,
    P. Verma, M. H. Lechner, and A. Jiang

             Previous Authors, Complete List of Code Contributors,
                       and Citations for Specific Modules
    https://github.com/psi4/psi4/blob/master/codemeta.json
    https://github.com/psi4/psi4/graphs/contributors
    http://psicode.org/psi4manual/master/introduction.html#citing-psifour

    -----------------------------------------------------------------------


    Psi4 started on: Thursday, 13 January 2022 12:19PM

    Process ID: 36751
    Host:       master
    PSIDATADIR: /public/gkxiao/software/anaconda3/envs/psi4/share/psi4
    Memory:     500.0 MiB
    Threads:    28
    
  ==> Input File <==

--------------------------------------------------------------------------
memory 24 GB

molecule dimer {
2 1 
 Zn                 2.07135600    3.02293900    0.41435000
--
0 1
 N                  1.00330200    1.97652700   -1.10406000
 C                 -0.24466600    1.36600000   -0.85426200
 C                 -1.42026700    2.11824700   -0.92469600
 C                 -2.64765000    1.52433300   -0.67004700
 C                 -2.74032800    0.16417300   -0.33442800
 C                 -1.55256500   -0.58945500   -0.23382400
 C                 -0.32546500    0.01072400   -0.49291600
 N                  0.84799700   -0.76057800   -0.46640600
 C                  1.90536100   -0.42139200    0.29108400
 O                  1.83437300    0.56651200    1.00198600
 C                  3.09982700   -1.29473200    0.20105600
 C                  3.33277900   -1.99549000   -0.97951500
 C                  4.43037400   -2.82924700   -1.10477000
 C                  5.31388400   -2.97482100   -0.04814600
 C                  5.09039000   -2.28607000    1.13876500
 C                  3.98721000   -1.45170200    1.27839300
 C                 -4.05665300   -0.47680100   -0.03195500
 C                 -4.28432500   -1.82394000   -0.34581500
 C                 -5.50480100   -2.41225100   -0.02021300
 C                 -6.51257400   -1.68272500    0.61445900
 C                 -6.29850500   -0.34633500    0.93989900
 C                 -5.08163500    0.24900700    0.62227300
 H                  0.91698900    2.64398900   -1.87169300
 H                  1.70925200    1.28991500   -1.37164400
 H                 -1.38217700    3.16939200   -1.19612900
 H                 -3.54867800    2.11839200   -0.76801700
 H                 -1.58099600   -1.62955300    0.06810100
 H                  0.78831100   -1.71581800   -0.79428200
 H                  2.67900800   -1.87285600   -1.83897100
 H                  4.60232000   -3.35698400   -2.03629100
 H                  6.17577500   -3.62614500   -0.14310800
 H                  5.77234500   -2.40789200    1.97296100
 H                  3.80262400   -0.92667300    2.20913600
 H                 -3.53743100   -2.40499500   -0.87478200
 H                 -5.68135100   -3.44845200   -0.28665600
 H                 -7.45742600   -2.15985600    0.85158100
 H                 -7.06337500    0.22801300    1.44944800
 H                 -4.91228700    1.28248700    0.90516600
units angstrom
no_reorient
symmetry c1
}

set {
    scf_type DF
    freeze_core True
    basis aug-cc-pVTZ
}

energy('sapt0')


--------------------------------------------------------------------------

  Memory set to  22.352 GiB by Python driver.

Scratch directory: /public/gkxiao/work/demo/3max/tmp/
   => Loading Basis Set <=

    Name: AUG-CC-PVTZ
    Role: ORBITAL
    Keyword: BASIS
    atoms 1              entry ZN         line  3384 file /public/gkxiao/software/anaconda3/envs/psi4/share/psi4/basis/aug-cc-pvtz.gbs 
    atoms 2, 9           entry N          line   285 file /public/gkxiao/software/anaconda3/envs/psi4/share/psi4/basis/aug-cc-pvtz.gbs 
    atoms 3-8, 10, 12-23 entry C          line   239 file /public/gkxiao/software/anaconda3/envs/psi4/share/psi4/basis/aug-cc-pvtz.gbs 
    atoms 11             entry O          line   331 file /public/gkxiao/software/anaconda3/envs/psi4/share/psi4/basis/aug-cc-pvtz.gbs 
    atoms 24-39          entry H          line    40 file /public/gkxiao/software/anaconda3/envs/psi4/share/psi4/basis/aug-cc-pvtz.gbs 

   => Loading Basis Set <=

    Name: AUG-CC-PVTZ
    Role: ORBITAL
    Keyword: BASIS
    atoms 1              entry ZN         line  3384 file /public/gkxiao/software/anaconda3/envs/psi4/share/psi4/basis/aug-cc-pvtz.gbs 
    atoms 2, 9           entry N          line   285 file /public/gkxiao/software/anaconda3/envs/psi4/share/psi4/basis/aug-cc-pvtz.gbs 
    atoms 3-8, 10, 12-23 entry C          line   239 file /public/gkxiao/software/anaconda3/envs/psi4/share/psi4/basis/aug-cc-pvtz.gbs 
    atoms 11             entry O          line   331 file /public/gkxiao/software/anaconda3/envs/psi4/share/psi4/basis/aug-cc-pvtz.gbs 
    atoms 24-39          entry H          line    40 file /public/gkxiao/software/anaconda3/envs/psi4/share/psi4/basis/aug-cc-pvtz.gbs 


  //>>>>>>>>>>>>>>>>>>>>>>>>>>>>>>>>>>>//
  //              Dimer HF             //
  //<<<<<<<<<<<<<<<<<<<<<<<<<<<<<<<<<<<//


*** tstart() called on master
*** at Thu Jan 13 12:19:26 2022

   => Loading Basis Set <=

    Name: AUG-CC-PVTZ
    Role: ORBITAL
    Keyword: BASIS
    atoms 1              entry ZN         line  3384 file /public/gkxiao/software/anaconda3/envs/psi4/share/psi4/basis/aug-cc-pvtz.gbs 
    atoms 2, 9           entry N          line   285 file /public/gkxiao/software/anaconda3/envs/psi4/share/psi4/basis/aug-cc-pvtz.gbs 
    atoms 3-8, 10, 12-23 entry C          line   239 file /public/gkxiao/software/anaconda3/envs/psi4/share/psi4/basis/aug-cc-pvtz.gbs 
    atoms 11             entry O          line   331 file /public/gkxiao/software/anaconda3/envs/psi4/share/psi4/basis/aug-cc-pvtz.gbs 
    atoms 24-39          entry H          line    40 file /public/gkxiao/software/anaconda3/envs/psi4/share/psi4/basis/aug-cc-pvtz.gbs 


         ---------------------------------------------------------
                                   SCF
               by Justin Turney, Rob Parrish, Andy Simmonett
                          and Daniel G. A. Smith
                              RHF Reference
                       28 Threads,  22888 MiB Core
         ---------------------------------------------------------

  ==> Geometry <==

    Molecular point group: c1
    Full point group: C1

    Geometry (in Angstrom), charge = 2, multiplicity = 1:

       Center              X                  Y                   Z               Mass       
    ------------   -----------------  -----------------  -----------------  -----------------
         ZN           2.023681936533     2.953077332086     0.399255378071    63.929142010000
         N            0.955627936533     1.906665332086    -1.119154621929    14.003074004430
         C           -0.292340063467     1.296138332086    -0.869356621929    12.000000000000
         C           -1.467941063467     2.048385332086    -0.939790621929    12.000000000000
         C           -2.695324063467     1.454471332086    -0.685141621929    12.000000000000
         C           -2.788002063467     0.094311332086    -0.349522621929    12.000000000000
         C           -1.600239063467    -0.659316667914    -0.248918621929    12.000000000000
         C           -0.373139063467    -0.059137667914    -0.508010621929    12.000000000000
         N            0.800322936533    -0.830439667914    -0.481500621929    14.003074004430
         C            1.857686936533    -0.491253667914     0.275989378071    12.000000000000
         O            1.786698936533     0.496650332086     0.986891378071    15.994914619570
         C            3.052152936533    -1.364593667914     0.185961378071    12.000000000000
         C            3.285104936533    -2.065351667914    -0.994609621929    12.000000000000
         C            4.382699936533    -2.899108667914    -1.119864621929    12.000000000000
         C            5.266209936533    -3.044682667914    -0.063240621929    12.000000000000
         C            5.042715936533    -2.355931667914     1.123670378071    12.000000000000
         C            3.939535936533    -1.521563667914     1.263298378071    12.000000000000
         C           -4.104327063467    -0.546662667914    -0.047049621929    12.000000000000
         C           -4.331999063467    -1.893801667914    -0.360909621929    12.000000000000
         C           -5.552475063467    -2.482112667914    -0.035307621929    12.000000000000
         C           -6.560248063467    -1.752586667914     0.599364378071    12.000000000000
         C           -6.346179063467    -0.416196667914     0.924804378071    12.000000000000
         C           -5.129309063467     0.179145332086     0.607178378071    12.000000000000
         H            0.869314936533     2.574127332086    -1.886787621929     1.007825032230
         H            1.661577936533     1.220053332086    -1.386738621929     1.007825032230
         H           -1.429851063467     3.099530332086    -1.211223621929     1.007825032230
         H           -3.596352063467     2.048530332086    -0.783111621929     1.007825032230
         H           -1.628670063467    -1.699414667914     0.053006378071     1.007825032230
         H            0.740636936533    -1.785679667914    -0.809376621929     1.007825032230
         H            2.631333936533    -1.942717667914    -1.854065621929     1.007825032230
         H            4.554645936533    -3.426845667914    -2.051385621929     1.007825032230
         H            6.128100936533    -3.696006667914    -0.158202621929     1.007825032230
         H            5.724670936533    -2.477753667914     1.957866378071     1.007825032230
         H            3.754949936533    -0.996534667914     2.194041378071     1.007825032230
         H           -3.585105063467    -2.474856667914    -0.889876621929     1.007825032230
         H           -5.729025063467    -3.518313667914    -0.301750621929     1.007825032230
         H           -7.505100063467    -2.229717667914     0.836486378071     1.007825032230
         H           -7.111049063467     0.158151332086     1.434353378071     1.007825032230
         H           -4.959961063467     1.212625332086     0.890071378071     1.007825032230

  Running in c1 symmetry.

  Rotational constants: A =      0.01091  B =      0.00372  C =      0.00296 [cm^-1]
  Rotational constants: A =    327.19146  B =    111.60367  C =     88.75574 [MHz]
  Nuclear repulsion = 2084.416619365281349

  Charge       = 2
  Multiplicity = 1
  Electrons    = 180
  Nalpha       = 90
  Nbeta        = 90

  ==> Algorithm <==

  SCF Algorithm Type is DF.
  DIIS enabled.
  MOM disabled.
  Fractional occupation disabled.
  Guess Type is SAD.
  Energy threshold   = 1.00e-08
  Density threshold  = 1.00e-08
  Integral threshold = 1.00e-12

  ==> Primary Basis <==

  Basis Set: AUG-CC-PVTZ
    Blend: AUG-CC-PVTZ
    Number of shells: 477
    Number of basis functions: 1473
    Number of Cartesian functions: 1729
    Spherical Harmonics?: true
    Max angular momentum: 4

   => Loading Basis Set <=

    Name: (AUG-CC-PVTZ AUX)
    Role: JKFIT
    Keyword: DF_BASIS_SCF
    atoms 1              entry ZN         line  2482 file /public/gkxiao/software/anaconda3/envs/psi4/share/psi4/basis/def2-universal-jkfit.gbs 
    atoms 2, 9           entry N          line   224 file /public/gkxiao/software/anaconda3/envs/psi4/share/psi4/basis/aug-cc-pvtz-jkfit.gbs 
    atoms 3-8, 10, 12-23 entry C          line   162 file /public/gkxiao/software/anaconda3/envs/psi4/share/psi4/basis/aug-cc-pvtz-jkfit.gbs 
    atoms 11             entry O          line   286 file /public/gkxiao/software/anaconda3/envs/psi4/share/psi4/basis/aug-cc-pvtz-jkfit.gbs 
    atoms 24-39          entry H          line    70 file /public/gkxiao/software/anaconda3/envs/psi4/share/psi4/basis/aug-cc-pvtz-jkfit.gbs 

  ==> Integral Setup <==

  ==> DiskDFJK: Density-Fitted J/K Matrices <==

    J tasked:                  Yes
    K tasked:                  Yes
    wK tasked:                  No
    OpenMP threads:             28
    Integrals threads:          28
    Memory [MiB]:            17166
    Algorithm:                Disk
    Integral Cache:           SAVE
    Schwarz Cutoff:          1E-12
    Fitting Condition:       1E-10

   => Auxiliary Basis Set <=

  Basis Set: (AUG-CC-PVTZ AUX)
    Blend: AUG-CC-PVTZ-JKFIT + DEF2-UNIVERSAL-JKFIT
    Number of shells: 942
    Number of basis functions: 3288
    Number of Cartesian functions: 4139
    Spherical Harmonics?: true
    Max angular momentum: 6

  Minimum eigenvalue in the overlap matrix is 1.6943078890E-07.
  Reciprocal condition number of the overlap matrix is 7.4590104146E-09.
    Using symmetric orthogonalization.

  ==> Pre-Iterations <==

  SCF Guess: Superposition of Atomic Densities via on-the-fly atomic UHF (no occupation information).

   -------------------------
    Irrep   Nso     Nmo    
   -------------------------
     A       1473    1473 
   -------------------------
    Total    1473    1473
   -------------------------

  ==> Iterations <==

                           Total Energy        Delta E     RMS |[F,P]|

   @DF-RHF iter SAD: -2686.79839305611904   -2.68680e+03   0.00000e+00 
   @DF-RHF iter   1: -2687.51012471461218   -7.11732e-01   2.67646e-03 DIIS
   @DF-RHF iter   2: -2637.12755852940199    5.03826e+01   5.71159e-03 DIIS
   @DF-RHF iter   3: -2675.43972518720102   -3.83122e+01   3.20358e-03 DIIS
   @DF-RHF iter   4: -2685.90932430666862   -1.04696e+01   2.26396e-03 DIIS
   @DF-RHF iter   5: -2685.99035250238194   -8.10282e-02   1.98118e-03 DIIS
   @DF-RHF iter   6: -2688.57453087652721   -2.58418e+00   1.54462e-03 DIIS
   @DF-RHF iter   7: -2689.45432885951686   -8.79798e-01   7.83487e-04 DIIS
   @DF-RHF iter   8: -2689.89863285301863   -4.44304e-01   4.22436e-04 DIIS
   @DF-RHF iter   9: -2690.11281715494852   -2.14184e-01   1.46135e-04 DIIS
   @DF-RHF iter  10: -2690.15245330356038   -3.96361e-02   6.25486e-05 DIIS
   @DF-RHF iter  11: -2690.16034690817014   -7.89360e-03   2.20736e-05 DIIS
   @DF-RHF iter  12: -2690.16224343919612   -1.89653e-03   1.10153e-05 DIIS
   @DF-RHF iter  13: -2690.16288685850895   -6.43419e-04   5.78795e-06 DIIS
   @DF-RHF iter  14: -2690.16308198009210   -1.95122e-04   2.70649e-06 DIIS
   @DF-RHF iter  15: -2690.16311592687498   -3.39468e-05   1.25128e-06 DIIS
   @DF-RHF iter  16: -2690.16312141708568   -5.49021e-06   4.78717e-07 DIIS
   @DF-RHF iter  17: -2690.16312285101594   -1.43393e-06   2.18361e-07 DIIS
   @DF-RHF iter  18: -2690.16312313103390   -2.80018e-07   1.40513e-07 DIIS
   @DF-RHF iter  19: -2690.16312321584155   -8.48077e-08   5.81979e-08 DIIS
   @DF-RHF iter  20: -2690.16312323777311   -2.19316e-08   3.49037e-08 DIIS
   @DF-RHF iter  21: -2690.16312324423961   -6.46651e-09   2.06771e-08 DIIS
   @DF-RHF iter  22: -2690.16312324596311   -1.72349e-09   6.89677e-09 DIIS
  Energy and wave function converged.


  ==> Post-Iterations <==

    Orbital Energies [Eh]
    ---------------------

    Doubly Occupied:                                                      

       1A   -353.740529     2A    -44.790994     3A    -39.357393  
       4A    -39.356634     5A    -39.355042     6A    -20.799723  
       7A    -15.951479     8A    -15.857054     9A    -11.617093  
      10A    -11.550368    11A    -11.545129    12A    -11.497591  
      13A    -11.496429    14A    -11.477400    15A    -11.476601  
      16A    -11.463541    17A    -11.455173    18A    -11.453099  
      19A    -11.440209    20A    -11.439222    21A    -11.433071  
      22A    -11.432906    23A    -11.422155    24A    -11.421421  
      25A    -11.411287    26A    -11.405956    27A    -11.405796  
      28A     -6.069546    29A     -4.277316    30A     -4.275858  
      31A     -4.274898    32A     -1.674862    33A     -1.569854  
      34A     -1.515443    35A     -1.397972    36A     -1.369554  
      37A     -1.334760    38A     -1.279828    39A     -1.272887  
      40A     -1.238006    41A     -1.225156    42A     -1.221778  
      43A     -1.221179    44A     -1.220601    45A     -1.220084  
      46A     -1.218420    47A     -1.193390    48A     -1.186955  
      49A     -1.125385    50A     -1.111016    51A     -1.075204  
      52A     -1.043157    53A     -1.035610    54A     -1.015633  
      55A     -1.003582    56A     -0.995738    57A     -0.987433  
      58A     -0.962620    59A     -0.938512    60A     -0.912155  
      61A     -0.894932    62A     -0.887579    63A     -0.876083  
      64A     -0.864625    65A     -0.857883    66A     -0.851084  
      67A     -0.836934    68A     -0.827668    69A     -0.810896  
      70A     -0.804686    71A     -0.799051    72A     -0.792974  
      73A     -0.767492    74A     -0.753251    75A     -0.752462  
      76A     -0.745990    77A     -0.732845    78A     -0.712909  
      79A     -0.701583    80A     -0.699543    81A     -0.692225  
      82A     -0.679118    83A     -0.675556    84A     -0.668202  
      85A     -0.586229    86A     -0.577630    87A     -0.550082  
      88A     -0.542910    89A     -0.511845    90A     -0.491495  

    Virtual:                                                              

      91A     -0.366243    92A     -0.227847    93A     -0.206932  
      94A     -0.170298    95A     -0.159026    96A     -0.148906  
      97A     -0.142669    98A     -0.134021    99A     -0.128374  
     100A     -0.121844   101A     -0.118594   102A     -0.116928  
     103A     -0.111755   104A     -0.109099   105A     -0.108481  
     106A     -0.100356   107A     -0.098156   108A     -0.093782  
     109A     -0.088508   110A     -0.087359   111A     -0.085341  
     112A     -0.084510   113A     -0.083147   114A     -0.079665  
     115A     -0.072930   116A     -0.068311   117A     -0.066257  
     118A     -0.065147   119A     -0.060757   120A     -0.060198  
     121A     -0.057656   122A     -0.056074   123A     -0.054623  
     124A     -0.051612   125A     -0.050438   126A     -0.047746  
     127A     -0.046257   128A     -0.043109   129A     -0.040855  
     130A     -0.039624   131A     -0.036446   132A     -0.035379  
     133A     -0.033973   134A     -0.029888   135A     -0.027658  
     136A     -0.025228   137A     -0.021756   138A     -0.020485  
     139A     -0.019157   140A     -0.017361   141A     -0.015497  
     142A     -0.013856   143A     -0.011758   144A     -0.008899  
     145A     -0.007495   146A     -0.004207   147A     -0.001886  
     148A      0.001209   149A      0.001819   150A      0.003822  
     151A      0.005627   152A      0.007290   153A      0.008851  
     154A      0.010725   155A      0.013235   156A      0.014950  
     157A      0.016552   158A      0.019539   159A      0.020544  
     160A      0.021088   161A      0.024703   162A      0.026917  
     163A      0.029045   164A      0.032046   165A      0.034792  
     166A      0.035840   167A      0.038673   168A      0.040834  
     169A      0.042986   170A      0.044936   171A      0.047059  
     172A      0.052479   173A      0.055306   174A      0.056493  
     175A      0.061927   176A      0.063234   177A      0.065905  
     178A      0.068634   179A      0.070184   180A      0.073288  
     181A      0.075548   182A      0.076686   183A      0.080118  
     184A      0.082235   185A      0.083094   186A      0.087783  
     187A      0.089572   188A      0.091573   189A      0.092355  
     190A      0.097072   191A      0.098705   192A      0.099561  
     193A      0.100513   194A      0.101853   195A      0.104761  
     196A      0.108550   197A      0.109916   198A      0.114350  
     199A      0.114502   200A      0.118959   201A      0.119411  
     202A      0.121243   203A      0.122529   204A      0.125722  
     205A      0.127921   206A      0.128214   207A      0.133657  
     208A      0.136330   209A      0.137538   210A      0.139559  
     211A      0.140103   212A      0.143295   213A      0.146751  
     214A      0.147566   215A      0.149785   216A      0.150481  
     217A      0.153286   218A      0.156596   219A      0.157009  
     220A      0.159114   221A      0.160579   222A      0.163144  
     223A      0.167485   224A      0.168459   225A      0.170625  
     226A      0.172085   227A      0.176619   228A      0.177762  
     229A      0.181338   230A      0.182541   231A      0.184213  
     232A      0.186670   233A      0.189782   234A      0.189946  
     235A      0.191602   236A      0.194856   237A      0.197758  
     238A      0.199609   239A      0.202818   240A      0.204007  
     241A      0.206393   242A      0.208255   243A      0.212491  
     244A      0.213091   245A      0.215937   246A      0.216051  
     247A      0.219178   248A      0.223200   249A      0.226800  
     250A      0.227463   251A      0.230662   252A      0.233208  
     253A      0.237367   254A      0.239008   255A      0.241655  
     256A      0.244465   257A      0.245346   258A      0.248084  
     259A      0.249964   260A      0.251624   261A      0.256227  
     262A      0.259059   263A      0.261444   264A      0.266006  
     265A      0.267911   266A      0.270366   267A      0.273431  
     268A      0.275604   269A      0.278919   270A      0.280836  
     271A      0.283222   272A      0.285620   273A      0.288145  
     274A      0.289888   275A      0.293141   276A      0.295963  
     277A      0.296520   278A      0.299112   279A      0.301723  
     280A      0.302818   281A      0.303178   282A      0.309903  
     283A      0.310126   284A      0.310739   285A      0.313042  
     286A      0.315891   287A      0.319154   288A      0.322520  
     289A      0.323318   290A      0.324395   291A      0.325540  
     292A      0.330278   293A      0.332157   294A      0.334382  
     295A      0.335758   296A      0.337665   297A      0.338859  
     298A      0.341777   299A      0.343302   300A      0.345664  
     301A      0.348414   302A      0.351494   303A      0.351925  
     304A      0.355496   305A      0.356207   306A      0.358534  
     307A      0.361600   308A      0.362534   309A      0.364168  
     310A      0.366680   311A      0.370168   312A      0.370700  
     313A      0.371101   314A      0.371804   315A      0.375510  
     316A      0.377929   317A      0.381273   318A      0.381638  
     319A      0.385363   320A      0.386961   321A      0.388799  
     322A      0.392691   323A      0.393684   324A      0.396214  
     325A      0.397405   326A      0.399889   327A      0.402344  
     328A      0.404907   329A      0.405403   330A      0.412038  
     331A      0.412773   332A      0.414826   333A      0.420152  
     334A      0.422873   335A      0.425393   336A      0.426686  
     337A      0.429136   338A      0.433888   339A      0.436080  
     340A      0.438351   341A      0.442343   342A      0.443050  
     343A      0.447406   344A      0.451634   345A      0.453062  
     346A      0.458659   347A      0.461174   348A      0.465399  
     349A      0.466432   350A      0.468895   351A      0.472114  
     352A      0.474326   353A      0.477452   354A      0.481223  
     355A      0.482374   356A      0.489910   357A      0.493213  
     358A      0.499173   359A      0.502655   360A      0.508521  
     361A      0.509978   362A      0.512752   363A      0.516458  
     364A      0.519334   365A      0.522287   366A      0.523184  
     367A      0.530070   368A      0.532059   369A      0.535754  
     370A      0.537289   371A      0.539655   372A      0.541929  
     373A      0.544310   374A      0.548878   375A      0.550849  
     376A      0.554616   377A      0.558210   378A      0.561025  
     379A      0.563571   380A      0.568774   381A      0.571654  
     382A      0.572837   383A      0.574984   384A      0.580693  
     385A      0.583935   386A      0.585194   387A      0.586985  
     388A      0.591310   389A      0.593208   390A      0.596660  
     391A      0.601961   392A      0.604124   393A      0.606219  
     394A      0.608360   395A      0.614219   396A      0.619923  
     397A      0.621648   398A      0.624466   399A      0.629988  
     400A      0.633484   401A      0.635208   402A      0.638375  
     403A      0.642008   404A      0.647356   405A      0.653355  
     406A      0.655435   407A      0.657552   408A      0.661800  
     409A      0.663029   410A      0.668065   411A      0.670251  
     412A      0.676554   413A      0.677899   414A      0.679054  
     415A      0.684037   416A      0.687693   417A      0.690696  
     418A      0.693058   419A      0.695420   420A      0.697743  
     421A      0.700096   422A      0.702230   423A      0.706789  
     424A      0.709963   425A      0.711585   426A      0.713910  
     427A      0.718488   428A      0.719046   429A      0.723199  
     430A      0.729043   431A      0.729643   432A      0.732789  
     433A      0.734119   434A      0.736190   435A      0.737242  
     436A      0.739828   437A      0.742665   438A      0.744343  
     439A      0.751458   440A      0.754367   441A      0.754456  
     442A      0.755782   443A      0.758368   444A      0.761166  
     445A      0.763819   446A      0.765038   447A      0.766509  
     448A      0.769535   449A      0.772687   450A      0.773187  
     451A      0.774827   452A      0.778760   453A      0.783765  
     454A      0.785047   455A      0.788604   456A      0.792687  
     457A      0.793499   458A      0.796558   459A      0.797986  
     460A      0.801815   461A      0.802296   462A      0.808509  
     463A      0.809520   464A      0.813669   465A      0.815406  
     466A      0.817326   467A      0.819543   468A      0.823923  
     469A      0.827250   470A      0.832525   471A      0.833057  
     472A      0.836147   473A      0.841043   474A      0.843000  
     475A      0.845552   476A      0.849444   477A      0.850134  
     478A      0.855794   479A      0.859370   480A      0.860766  
     481A      0.863601   482A      0.866111   483A      0.867617  
     484A      0.869104   485A      0.873493   486A      0.874162  
     487A      0.879992   488A      0.883236   489A      0.885379  
     490A      0.888895   491A      0.890108   492A      0.892939  
     493A      0.895714   494A      0.897756   495A      0.900309  
     496A      0.901042   497A      0.902717   498A      0.908223  
     499A      0.912660   500A      0.913400   501A      0.915672  
     502A      0.917410   503A      0.921238   504A      0.923451  
     505A      0.926074   506A      0.928667   507A      0.932404  
     508A      0.934237   509A      0.939947   510A      0.941839  
     511A      0.943024   512A      0.945167   513A      0.948450  
     514A      0.951062   515A      0.951701   516A      0.954455  
     517A      0.955347   518A      0.959916   519A      0.962328  
     520A      0.963680   521A      0.966349   522A      0.967665  
     523A      0.974584   524A      0.975601   525A      0.979995  
     526A      0.981184   527A      0.986227   528A      0.989777  
     529A      0.990686   530A      0.993986   531A      0.998016  
     532A      1.000493   533A      1.004155   534A      1.005532  
     535A      1.011475   536A      1.013199   537A      1.015985  
     538A      1.016457   539A      1.018043   540A      1.021510  
     541A      1.023648   542A      1.026409   543A      1.028610  
     544A      1.033502   545A      1.036063   546A      1.038062  
     547A      1.039085   548A      1.043718   549A      1.048169  
     550A      1.048970   551A      1.051311   552A      1.054111  
     553A      1.054920   554A      1.062401   555A      1.066263  
     556A      1.069210   557A      1.070868   558A      1.073491  
     559A      1.076613   560A      1.081070   561A      1.084717  
     562A      1.088247   563A      1.089199   564A      1.091836  
     565A      1.094364   566A      1.100073   567A      1.100711  
     568A      1.107026   569A      1.111247   570A      1.115380  
     571A      1.116912   572A      1.119064   573A      1.124713  
     574A      1.127655   575A      1.137156   576A      1.141160  
     577A      1.142373   578A      1.145600   579A      1.149087  
     580A      1.151275   581A      1.159431   582A      1.162365  
     583A      1.163993   584A      1.167367   585A      1.174297  
     586A      1.175172   587A      1.180108   588A      1.182392  
     589A      1.182533   590A      1.187541   591A      1.192418  
     592A      1.196265   593A      1.197867   594A      1.200627  
     595A      1.204840   596A      1.210460   597A      1.214106  
     598A      1.218367   599A      1.221830   600A      1.225108  
     601A      1.230151   602A      1.233403   603A      1.236334  
     604A      1.237374   605A      1.240975   606A      1.243698  
     607A      1.247976   608A      1.250768   609A      1.256425  
     610A      1.265124   611A      1.270147   612A      1.271224  
     613A      1.274013   614A      1.280897   615A      1.286706  
     616A      1.287912   617A      1.290630   618A      1.293946  
     619A      1.295442   620A      1.297609   621A      1.306460  
     622A      1.309628   623A      1.312353   624A      1.315474  
     625A      1.321416   626A      1.327354   627A      1.329800  
     628A      1.331220   629A      1.334482   630A      1.340597  
     631A      1.347530   632A      1.351162   633A      1.355850  
     634A      1.360206   635A      1.364779   636A      1.369257  
     637A      1.370760   638A      1.377399   639A      1.378930  
     640A      1.385684   641A      1.389638   642A      1.390840  
     643A      1.392134   644A      1.397621   645A      1.401098  
     646A      1.407883   647A      1.409568   648A      1.415273  
     649A      1.421584   650A      1.424997   651A      1.427896  
     652A      1.428614   653A      1.435956   654A      1.438667  
     655A      1.444129   656A      1.450262   657A      1.455299  
     658A      1.458407   659A      1.466386   660A      1.467573  
     661A      1.470372   662A      1.482670   663A      1.483796  
     664A      1.492118   665A      1.495579   666A      1.500053  
     667A      1.509402   668A      1.511009   669A      1.519556  
     670A      1.522114   671A      1.524384   672A      1.529731  
     673A      1.534112   674A      1.538971   675A      1.543095  
     676A      1.548009   677A      1.553346   678A      1.556662  
     679A      1.557375   680A      1.563541   681A      1.566573  
     682A      1.573261   683A      1.574692   684A      1.580399  
     685A      1.586255   686A      1.587490   687A      1.593031  
     688A      1.593901   689A      1.597427   690A      1.599586  
     691A      1.603377   692A      1.610774   693A      1.616319  
     694A      1.621325   695A      1.621805   696A      1.626619  
     697A      1.632155   698A      1.637866   699A      1.641209  
     700A      1.642368   701A      1.649503   702A      1.653027  
     703A      1.662620   704A      1.665852   705A      1.668489  
     706A      1.673258   707A      1.675106   708A      1.680932  
     709A      1.682744   710A      1.685791   711A      1.689573  
     712A      1.697030   713A      1.699732   714A      1.702837  
     715A      1.706393   716A      1.712319   717A      1.715449  
     718A      1.721863   719A      1.725600   720A      1.732790  
     721A      1.736324   722A      1.739366   723A      1.743428  
     724A      1.746043   725A      1.750569   726A      1.753688  
     727A      1.756655   728A      1.762735   729A      1.763914  
     730A      1.767238   731A      1.771615   732A      1.779904  
     733A      1.787043   734A      1.792989   735A      1.800065  
     736A      1.807618   737A      1.809393   738A      1.812517  
     739A      1.815780   740A      1.825335   741A      1.826280  
     742A      1.829703   743A      1.833632   744A      1.837769  
     745A      1.843407   746A      1.843606   747A      1.847833  
     748A      1.850299   749A      1.853604   750A      1.857167  
     751A      1.861056   752A      1.863494   753A      1.869409  
     754A      1.873640   755A      1.880734   756A      1.882339  
     757A      1.884679   758A      1.893050   759A      1.893632  
     760A      1.895823   761A      1.899277   762A      1.902468  
     763A      1.907935   764A      1.910830   765A      1.916421  
     766A      1.921621   767A      1.922963   768A      1.926584  
     769A      1.929275   770A      1.934102   771A      1.936749  
     772A      1.946264   773A      1.947344   774A      1.951212  
     775A      1.955123   776A      1.960636   777A      1.962108  
     778A      1.966212   779A      1.974134   780A      1.977997  
     781A      1.984112   782A      1.985029   783A      1.989925  
     784A      1.994700   785A      1.998924   786A      2.008927  
     787A      2.015483   788A      2.021124   789A      2.025636  
     790A      2.027678   791A      2.031879   792A      2.033581  
     793A      2.040428   794A      2.046828   795A      2.057443  
     796A      2.063637   797A      2.066879   798A      2.071934  
     799A      2.077777   800A      2.084759   801A      2.089261  
     802A      2.093679   803A      2.101330   804A      2.102648  
     805A      2.110498   806A      2.116134   807A      2.124556  
     808A      2.132017   809A      2.136995   810A      2.142535  
     811A      2.144978   812A      2.147682   813A      2.160483  
     814A      2.161802   815A      2.164860   816A      2.165647  
     817A      2.171764   818A      2.181351   819A      2.189790  
     820A      2.195442   821A      2.196259   822A      2.204890  
     823A      2.207115   824A      2.211250   825A      2.213947  
     826A      2.221443   827A      2.227526   828A      2.228484  
     829A      2.233735   830A      2.236148   831A      2.241438  
     832A      2.247506   833A      2.250599   834A      2.255300  
     835A      2.258836   836A      2.263345   837A      2.269352  
     838A      2.275290   839A      2.283740   840A      2.285908  
     841A      2.296575   842A      2.303421   843A      2.308275  
     844A      2.318371   845A      2.323598   846A      2.334025  
     847A      2.341115   848A      2.344226   849A      2.348950  
     850A      2.359383   851A      2.365113   852A      2.371079  
     853A      2.375079   854A      2.382102   855A      2.388655  
     856A      2.397418   857A      2.406119   858A      2.410048  
     859A      2.413685   860A      2.417471   861A      2.425280  
     862A      2.432362   863A      2.441463   864A      2.452400  
     865A      2.460759   866A      2.464746   867A      2.472790  
     868A      2.486184   869A      2.495286   870A      2.500869  
     871A      2.507837   872A      2.512608   873A      2.515385  
     874A      2.526708   875A      2.528245   876A      2.544449  
     877A      2.551287   878A      2.563866   879A      2.565435  
     880A      2.571785   881A      2.581776   882A      2.585323  
     883A      2.602026   884A      2.610716   885A      2.615540  
     886A      2.624089   887A      2.631438   888A      2.635990  
     889A      2.639352   890A      2.646899   891A      2.654122  
     892A      2.662434   893A      2.667237   894A      2.679610  
     895A      2.696255   896A      2.696755   897A      2.706516  
     898A      2.716383   899A      2.732016   900A      2.742713  
     901A      2.751482   902A      2.773598   903A      2.777338  
     904A      2.784265   905A      2.801555   906A      2.814570  
     907A      2.820683   908A      2.830786   909A      2.854729  
     910A      2.864719   911A      2.875752   912A      2.886836  
     913A      2.894762   914A      2.905606   915A      2.914404  
     916A      2.927461   917A      2.946516   918A      2.952573  
     919A      2.962255   920A      2.975318   921A      2.984440  
     922A      2.988023   923A      3.003100   924A      3.009757  
     925A      3.025770   926A      3.031233   927A      3.035928  
     928A      3.042972   929A      3.049081   930A      3.060899  
     931A      3.062224   932A      3.077356   933A      3.089001  
     934A      3.089181   935A      3.094061   936A      3.098120  
     937A      3.105081   938A      3.125512   939A      3.129561  
     940A      3.131882   941A      3.136174   942A      3.148410  
     943A      3.155979   944A      3.156690   945A      3.163297  
     946A      3.169269   947A      3.171894   948A      3.182560  
     949A      3.190714   950A      3.194114   951A      3.200093  
     952A      3.205805   953A      3.214681   954A      3.218918  
     955A      3.221219   956A      3.231216   957A      3.236801  
     958A      3.245117   959A      3.250473   960A      3.252067  
     961A      3.255327   962A      3.267114   963A      3.275948  
     964A      3.277064   965A      3.279476   966A      3.284353  
     967A      3.293226   968A      3.298943   969A      3.302401  
     970A      3.309512   971A      3.315037   972A      3.320055  
     973A      3.322758   974A      3.337029   975A      3.338088  
     976A      3.344981   977A      3.345492   978A      3.347624  
     979A      3.351229   980A      3.355030   981A      3.359900  
     982A      3.362590   983A      3.366985   984A      3.368839  
     985A      3.377289   986A      3.383529   987A      3.389268  
     988A      3.397395   989A      3.402916   990A      3.404711  
     991A      3.405654   992A      3.415128   993A      3.422215  
     994A      3.423597   995A      3.430429   996A      3.433445  
     997A      3.436400   998A      3.446305   999A      3.448330  
    1000A      3.456721  1001A      3.460737  1002A      3.467249  
    1003A      3.471211  1004A      3.481204  1005A      3.485186  
    1006A      3.495061  1007A      3.499841  1008A      3.501891  
    1009A      3.504874  1010A      3.507453  1011A      3.519994  
    1012A      3.524600  1013A      3.532649  1014A      3.534386  
    1015A      3.538130  1016A      3.549316  1017A      3.555016  
    1018A      3.558392  1019A      3.568665  1020A      3.576018  
    1021A      3.580587  1022A      3.584221  1023A      3.588026  
    1024A      3.594521  1025A      3.605959  1026A      3.606783  
    1027A      3.616718  1028A      3.619767  1029A      3.630197  
    1030A      3.634847  1031A      3.644557  1032A      3.645662  
    1033A      3.651718  1034A      3.655741  1035A      3.664758  
    1036A      3.666239  1037A      3.671314  1038A      3.677228  
    1039A      3.680221  1040A      3.684327  1041A      3.693960  
    1042A      3.697778  1043A      3.706684  1044A      3.708918  
    1045A      3.716272  1046A      3.716753  1047A      3.721663  
    1048A      3.730265  1049A      3.734372  1050A      3.741976  
    1051A      3.748255  1052A      3.752321  1053A      3.757214  
    1054A      3.761942  1055A      3.765520  1056A      3.770036  
    1057A      3.775557  1058A      3.781937  1059A      3.784996  
    1060A      3.789089  1061A      3.796575  1062A      3.798240  
    1063A      3.805895  1064A      3.808068  1065A      3.814709  
    1066A      3.819407  1067A      3.824469  1068A      3.826716  
    1069A      3.835176  1070A      3.835705  1071A      3.844418  
    1072A      3.846788  1073A      3.851531  1074A      3.857055  
    1075A      3.857787  1076A      3.869892  1077A      3.871968  
    1078A      3.873448  1079A      3.880588  1080A      3.881297  
    1081A      3.883968  1082A      3.888930  1083A      3.891905  
    1084A      3.903248  1085A      3.910323  1086A      3.914942  
    1087A      3.925237  1088A      3.931884  1089A      3.932521  
    1090A      3.937358  1091A      3.942846  1092A      3.952255  
    1093A      3.955048  1094A      3.959246  1095A      3.962066  
    1096A      3.967502  1097A      3.971717  1098A      3.978159  
    1099A      3.981347  1100A      3.988317  1101A      3.992573  
    1102A      3.997723  1103A      4.001799  1104A      4.005992  
    1105A      4.018040  1106A      4.031119  1107A      4.033376  
    1108A      4.036920  1109A      4.042882  1110A      4.048507  
    1111A      4.053719  1112A      4.058254  1113A      4.069388  
    1114A      4.072504  1115A      4.076063  1116A      4.080562  
    1117A      4.090139  1118A      4.093824  1119A      4.104117  
    1120A      4.105886  1121A      4.107935  1122A      4.114917  
    1123A      4.123139  1124A      4.124492  1125A      4.131342  
    1126A      4.138284  1127A      4.139710  1128A      4.147394  
    1129A      4.152765  1130A      4.155122  1131A      4.165817  
    1132A      4.168621  1133A      4.175240  1134A      4.175621  
    1135A      4.190990  1136A      4.192017  1137A      4.194077  
    1138A      4.199002  1139A      4.205019  1140A      4.212608  
    1141A      4.216457  1142A      4.225062  1143A      4.226790  
    1144A      4.233599  1145A      4.235983  1146A      4.238777  
    1147A      4.242362  1148A      4.250149  1149A      4.254892  
    1150A      4.258934  1151A      4.263127  1152A      4.268286  
    1153A      4.268667  1154A      4.272036  1155A      4.281613  
    1156A      4.285915  1157A      4.290500  1158A      4.293907  
    1159A      4.299961  1160A      4.302651  1161A      4.306923  
    1162A      4.316244  1163A      4.317846  1164A      4.324097  
    1165A      4.329344  1166A      4.332944  1167A      4.337933  
    1168A      4.339540  1169A      4.342142  1170A      4.350778  
    1171A      4.360371  1172A      4.366396  1173A      4.373854  
    1174A      4.385171  1175A      4.389069  1176A      4.395631  
    1177A      4.404256  1178A      4.407728  1179A      4.415047  
    1180A      4.421394  1181A      4.438005  1182A      4.446801  
    1183A      4.450812  1184A      4.462312  1185A      4.465547  
    1186A      4.476172  1187A      4.478809  1188A      4.488136  
    1189A      4.490598  1190A      4.502952  1191A      4.509732  
    1192A      4.517131  1193A      4.529000  1194A      4.530629  
    1195A      4.534075  1196A      4.541075  1197A      4.550150  
    1198A      4.553409  1199A      4.561962  1200A      4.567057  
    1201A      4.569167  1202A      4.574630  1203A      4.576628  
    1204A      4.583630  1205A      4.594889  1206A      4.598259  
    1207A      4.602227  1208A      4.610899  1209A      4.616336  
    1210A      4.630240  1211A      4.637373  1212A      4.639680  
    1213A      4.645367  1214A      4.649006  1215A      4.664656  
    1216A      4.670727  1217A      4.675711  1218A      4.688507  
    1219A      4.699948  1220A      4.706311  1221A      4.714866  
    1222A      4.719993  1223A      4.724002  1224A      4.737305  
    1225A      4.741866  1226A      4.751500  1227A      4.754636  
    1228A      4.766537  1229A      4.767847  1230A      4.775850  
    1231A      4.785799  1232A      4.794554  1233A      4.800935  
    1234A      4.808066  1235A      4.814809  1236A      4.820129  
    1237A      4.827146  1238A      4.836362  1239A      4.840085  
    1240A      4.853524  1241A      4.859760  1242A      4.861284  
    1243A      4.866792  1244A      4.876103  1245A      4.891924  
    1246A      4.897778  1247A      4.904676  1248A      4.907651  
    1249A      4.918283  1250A      4.923810  1251A      4.927195  
    1252A      4.935938  1253A      4.940650  1254A      4.945679  
    1255A      4.948468  1256A      4.956430  1257A      4.963432  
    1258A      4.967516  1259A      4.972753  1260A      4.978865  
    1261A      4.983974  1262A      4.985054  1263A      4.989859  
    1264A      4.997228  1265A      5.000165  1266A      5.005872  
    1267A      5.014568  1268A      5.015417  1269A      5.017235  
    1270A      5.023857  1271A      5.029254  1272A      5.038316  
    1273A      5.045239  1274A      5.053123  1275A      5.058398  
    1276A      5.071290  1277A      5.079660  1278A      5.085827  
    1279A      5.094781  1280A      5.103117  1281A      5.105894  
    1282A      5.120402  1283A      5.131077  1284A      5.138377  
    1285A      5.139597  1286A      5.143339  1287A      5.147153  
    1288A      5.155006  1289A      5.161334  1290A      5.162981  
    1291A      5.173132  1292A      5.177723  1293A      5.183218  
    1294A      5.191381  1295A      5.199541  1296A      5.205857  
    1297A      5.212697  1298A      5.220285  1299A      5.234963  
    1300A      5.244241  1301A      5.249968  1302A      5.256987  
    1303A      5.262629  1304A      5.271998  1305A      5.276486  
    1306A      5.305247  1307A      5.306967  1308A      5.315284  
    1309A      5.323591  1310A      5.328272  1311A      5.344991  
    1312A      5.357911  1313A      5.364050  1314A      5.372495  
    1315A      5.390704  1316A      5.400007  1317A      5.417794  
    1318A      5.424995  1319A      5.433940  1320A      5.442715  
    1321A      5.454998  1322A      5.464850  1323A      5.473333  
    1324A      5.490180  1325A      5.495281  1326A      5.504825  
    1327A      5.544786  1328A      5.558636  1329A      5.565058  
    1330A      5.583849  1331A      5.593482  1332A      5.596107  
    1333A      5.607507  1334A      5.620252  1335A      5.632410  
    1336A      5.640187  1337A      5.646065  1338A      5.654578  
    1339A      5.667642  1340A      5.680552  1341A      5.701002  
    1342A      5.728310  1343A      5.733900  1344A      5.773054  
    1345A      5.787152  1346A      5.804868  1347A      5.807699  
    1348A      5.829649  1349A      5.832979  1350A      5.870405  
    1351A      5.888665  1352A      5.919316  1353A      5.953155  
    1354A      5.969577  1355A      5.976374  1356A      5.994830  
    1357A      6.003780  1358A      6.013722  1359A      6.044882  
    1360A      6.057048  1361A      6.068922  1362A      6.081483  
    1363A      6.102242  1364A      6.111797  1365A      6.126985  
    1366A      6.153095  1367A      6.163456  1368A      6.173936  
    1369A      6.186682  1370A      6.193813  1371A      6.198183  
    1372A      6.223508  1373A      6.245029  1374A      6.248482  
    1375A      6.260555  1376A      6.276513  1377A      6.293156  
    1378A      6.324564  1379A      6.337599  1380A      6.361651  
    1381A      6.382490  1382A      6.414541  1383A      6.431791  
    1384A      6.441853  1385A      6.521574  1386A      6.533745  
    1387A      6.545809  1388A      6.586533  1389A      6.603234  
    1390A      6.635788  1391A      6.660786  1392A      6.675654  
    1393A      6.701821  1394A      6.729381  1395A      6.742387  
    1396A      6.746622  1397A      6.752699  1398A      6.789788  
    1399A      6.803830  1400A      6.833310  1401A      6.839676  
    1402A      6.894528  1403A      6.924882  1404A      6.960635  
    1405A      6.983922  1406A      7.047391  1407A      7.068138  
    1408A      7.070247  1409A      7.088065  1410A      7.146470  
    1411A      7.166463  1412A      7.187931  1413A      7.328210  
    1414A      7.355528  1415A      7.449089  1416A      7.449736  
    1417A      7.456310  1418A      7.461016  1419A      7.474561  
    1420A      7.476766  1421A      7.511851  1422A      7.529673  
    1423A      7.570003  1424A      7.574680  1425A      7.622028  
    1426A      7.698124  1427A      7.717659  1428A      7.755233  
    1429A      7.866294  1430A      7.884893  1431A     10.792056  
    1432A     10.815462  1433A     10.948743  1434A     11.084868  
    1435A     11.257669  1436A     15.808115  1437A     16.031324  
    1438A     16.151978  1439A     16.271517  1440A     16.389693  
    1441A     16.432768  1442A     16.449112  1443A     16.480971  
    1444A     16.548209  1445A     16.563933  1446A     16.593624  
    1447A     16.659017  1448A     16.706039  1449A     17.229635  
    1450A     17.442226  1451A     18.703110  1452A     18.984734  
    1453A     19.009196  1454A     19.188434  1455A     19.295456  
    1456A     19.590157  1457A     19.842630  1458A     20.012177  
    1459A     20.130470  1460A     20.130989  1461A     20.134601  
    1462A     20.139580  1463A     20.142324  1464A     20.149735  
    1465A     20.156390  1466A     20.183347  1467A     20.189399  
    1468A     20.217235  1469A     20.449162  1470A     20.931424  
    1471A     21.351801  1472A     21.866509  1473A     22.454744  

    Final Occupation by Irrep:
              A 
    DOCC [    90 ]

  @DF-RHF Final Energy: -2690.16312324596311

   => Energetics <=

    Nuclear Repulsion Energy =           2084.4166193652813490
    One-Electron Energy =               -7824.2325490222820008
    Two-Electron Energy =                3049.6528064110380001
    Total Energy =                      -2690.1631232459631065

Computation Completed


Properties will be evaluated at   0.000000,   0.000000,   0.000000 [a0]

Properties computed using the SCF density matrix

  Nuclear Dipole Moment: [e a0]
     X:   -16.3965      Y:   -24.0275      Z:    -5.1915

  Electronic Dipole Moment: [e a0]
     X:    19.5116      Y:    28.2394      Z:     4.4431

  Dipole Moment: [e a0]
     X:     3.1151      Y:     4.2118      Z:    -0.7484     Total:     5.2918

  Dipole Moment: [D]
     X:     7.9177      Y:    10.7054      Z:    -1.9023     Total:    13.4505


*** tstop() called on master at Thu Jan 13 12:44:49 2022
Module time:
	user time   =   13323.91 seconds =     222.07 minutes
	system time =    9643.71 seconds =     160.73 minutes
	total time  =       1523 seconds =      25.38 minutes
Total time:
	user time   =   13323.91 seconds =     222.07 minutes
	system time =    9643.71 seconds =     160.73 minutes
	total time  =       1523 seconds =      25.38 minutes

  //>>>>>>>>>>>>>>>>>>>>>>>>>>>>>>>>>>>//
  //            Monomer A HF           //
  //<<<<<<<<<<<<<<<<<<<<<<<<<<<<<<<<<<<//


*** tstart() called on master
*** at Thu Jan 13 12:44:49 2022

   => Loading Basis Set <=

    Name: AUG-CC-PVTZ
    Role: ORBITAL
    Keyword: BASIS
    atoms 1              entry ZN         line  3384 file /public/gkxiao/software/anaconda3/envs/psi4/share/psi4/basis/aug-cc-pvtz.gbs 
    atoms 2, 9           entry N          line   285 file /public/gkxiao/software/anaconda3/envs/psi4/share/psi4/basis/aug-cc-pvtz.gbs 
    atoms 3-8, 10, 12-23 entry C          line   239 file /public/gkxiao/software/anaconda3/envs/psi4/share/psi4/basis/aug-cc-pvtz.gbs 
    atoms 11             entry O          line   331 file /public/gkxiao/software/anaconda3/envs/psi4/share/psi4/basis/aug-cc-pvtz.gbs 
    atoms 24-39          entry H          line    40 file /public/gkxiao/software/anaconda3/envs/psi4/share/psi4/basis/aug-cc-pvtz.gbs 


         ---------------------------------------------------------
                                   SCF
               by Justin Turney, Rob Parrish, Andy Simmonett
                          and Daniel G. A. Smith
                              RHF Reference
                       28 Threads,  22888 MiB Core
         ---------------------------------------------------------

  ==> Geometry <==

    Molecular point group: c1
    Full point group: C1

    Geometry (in Angstrom), charge = 2, multiplicity = 1:

       Center              X                  Y                   Z               Mass       
    ------------   -----------------  -----------------  -----------------  -----------------
         ZN           2.023681936533     2.953077332086     0.399255378071    63.929142010000
      Gh(N)           0.955627936533     1.906665332086    -1.119154621929    14.003074004430
      Gh(C)          -0.292340063467     1.296138332086    -0.869356621929    12.000000000000
      Gh(C)          -1.467941063467     2.048385332086    -0.939790621929    12.000000000000
      Gh(C)          -2.695324063467     1.454471332086    -0.685141621929    12.000000000000
      Gh(C)          -2.788002063467     0.094311332086    -0.349522621929    12.000000000000
      Gh(C)          -1.600239063467    -0.659316667914    -0.248918621929    12.000000000000
      Gh(C)          -0.373139063467    -0.059137667914    -0.508010621929    12.000000000000
      Gh(N)           0.800322936533    -0.830439667914    -0.481500621929    14.003074004430
      Gh(C)           1.857686936533    -0.491253667914     0.275989378071    12.000000000000
      Gh(O)           1.786698936533     0.496650332086     0.986891378071    15.994914619570
      Gh(C)           3.052152936533    -1.364593667914     0.185961378071    12.000000000000
      Gh(C)           3.285104936533    -2.065351667914    -0.994609621929    12.000000000000
      Gh(C)           4.382699936533    -2.899108667914    -1.119864621929    12.000000000000
      Gh(C)           5.266209936533    -3.044682667914    -0.063240621929    12.000000000000
      Gh(C)           5.042715936533    -2.355931667914     1.123670378071    12.000000000000
      Gh(C)           3.939535936533    -1.521563667914     1.263298378071    12.000000000000
      Gh(C)          -4.104327063467    -0.546662667914    -0.047049621929    12.000000000000
      Gh(C)          -4.331999063467    -1.893801667914    -0.360909621929    12.000000000000
      Gh(C)          -5.552475063467    -2.482112667914    -0.035307621929    12.000000000000
      Gh(C)          -6.560248063467    -1.752586667914     0.599364378071    12.000000000000
      Gh(C)          -6.346179063467    -0.416196667914     0.924804378071    12.000000000000
      Gh(C)          -5.129309063467     0.179145332086     0.607178378071    12.000000000000
      Gh(H)           0.869314936533     2.574127332086    -1.886787621929     1.007825032230
      Gh(H)           1.661577936533     1.220053332086    -1.386738621929     1.007825032230
      Gh(H)          -1.429851063467     3.099530332086    -1.211223621929     1.007825032230
      Gh(H)          -3.596352063467     2.048530332086    -0.783111621929     1.007825032230
      Gh(H)          -1.628670063467    -1.699414667914     0.053006378071     1.007825032230
      Gh(H)           0.740636936533    -1.785679667914    -0.809376621929     1.007825032230
      Gh(H)           2.631333936533    -1.942717667914    -1.854065621929     1.007825032230
      Gh(H)           4.554645936533    -3.426845667914    -2.051385621929     1.007825032230
      Gh(H)           6.128100936533    -3.696006667914    -0.158202621929     1.007825032230
      Gh(H)           5.724670936533    -2.477753667914     1.957866378071     1.007825032230
      Gh(H)           3.754949936533    -0.996534667914     2.194041378071     1.007825032230
      Gh(H)          -3.585105063467    -2.474856667914    -0.889876621929     1.007825032230
      Gh(H)          -5.729025063467    -3.518313667914    -0.301750621929     1.007825032230
      Gh(H)          -7.505100063467    -2.229717667914     0.836486378071     1.007825032230
      Gh(H)          -7.111049063467     0.158151332086     1.434353378071     1.007825032230
      Gh(H)          -4.959961063467     1.212625332086     0.890071378071     1.007825032230

  Running in c1 symmetry.

  Rotational constants: A =      0.01091  B =      0.00372  C =      0.00296 [cm^-1]
  Rotational constants: A =    327.19146  B =    111.60367  C =     88.75574 [MHz]
  Nuclear repulsion =    0.000000000000000

  Charge       = 2
  Multiplicity = 1
  Electrons    = 28
  Nalpha       = 14
  Nbeta        = 14

  ==> Algorithm <==

  SCF Algorithm Type is DF.
  DIIS enabled.
  MOM disabled.
  Fractional occupation disabled.
  Guess Type is SAD.
  Energy threshold   = 1.00e-08
  Density threshold  = 1.00e-08
  Integral threshold = 1.00e-12

  ==> Primary Basis <==

  Basis Set: AUG-CC-PVTZ
    Blend: AUG-CC-PVTZ
    Number of shells: 477
    Number of basis functions: 1473
    Number of Cartesian functions: 1729
    Spherical Harmonics?: true
    Max angular momentum: 4

   => Loading Basis Set <=

    Name: (AUG-CC-PVTZ AUX)
    Role: JKFIT
    Keyword: DF_BASIS_SCF
    atoms 1              entry ZN         line  2482 file /public/gkxiao/software/anaconda3/envs/psi4/share/psi4/basis/def2-universal-jkfit.gbs 
    atoms 2, 9           entry N          line   224 file /public/gkxiao/software/anaconda3/envs/psi4/share/psi4/basis/aug-cc-pvtz-jkfit.gbs 
    atoms 3-8, 10, 12-23 entry C          line   162 file /public/gkxiao/software/anaconda3/envs/psi4/share/psi4/basis/aug-cc-pvtz-jkfit.gbs 
    atoms 11             entry O          line   286 file /public/gkxiao/software/anaconda3/envs/psi4/share/psi4/basis/aug-cc-pvtz-jkfit.gbs 
    atoms 24-39          entry H          line    70 file /public/gkxiao/software/anaconda3/envs/psi4/share/psi4/basis/aug-cc-pvtz-jkfit.gbs 

  ==> Integral Setup <==

  ==> DiskDFJK: Density-Fitted J/K Matrices <==

    J tasked:                  Yes
    K tasked:                  Yes
    wK tasked:                  No
    OpenMP threads:             28
    Integrals threads:          28
    Memory [MiB]:            17166
    Algorithm:                Disk
    Integral Cache:           LOAD
    Schwarz Cutoff:          1E-12
    Fitting Condition:       1E-10

   => Auxiliary Basis Set <=

  Basis Set: (AUG-CC-PVTZ AUX)
    Blend: AUG-CC-PVTZ-JKFIT + DEF2-UNIVERSAL-JKFIT
    Number of shells: 942
    Number of basis functions: 3288
    Number of Cartesian functions: 4139
    Spherical Harmonics?: true
    Max angular momentum: 6

  Minimum eigenvalue in the overlap matrix is 1.6943078890E-07.
  Reciprocal condition number of the overlap matrix is 7.4590104146E-09.
    Using symmetric orthogonalization.

  ==> Pre-Iterations <==

  SCF Guess: Superposition of Atomic Densities via on-the-fly atomic UHF (no occupation information).

   -------------------------
    Irrep   Nso     Nmo    
   -------------------------
     A       1473    1473 
   -------------------------
    Total    1473    1473
   -------------------------

  ==> Iterations <==

                           Total Energy        Delta E     RMS |[F,P]|

   @DF-RHF iter SAD: -1773.52910055689927   -1.77353e+03   0.00000e+00 
   @DF-RHF iter   1: -1775.50332004480583   -1.97422e+00   2.40945e-03 DIIS
   @DF-RHF iter   2: -1774.83652600620326    6.66794e-01   2.91676e-03 DIIS
   @DF-RHF iter   3: -1776.95466511713084   -2.11814e+00   1.00308e-04 DIIS
   @DF-RHF iter   4: -1776.95764512191977   -2.98000e-03   5.82111e-06 DIIS
   @DF-RHF iter   5: -1776.95765992572046   -1.48038e-05   6.95964e-07 DIIS
   @DF-RHF iter   6: -1776.95766011984665   -1.94126e-07   1.15744e-07 DIIS
   @DF-RHF iter   7: -1776.95766012258559   -2.73894e-09   2.51293e-09 DIIS
  Energy and wave function converged.


  ==> Post-Iterations <==

    Orbital Energies [Eh]
    ---------------------

    Doubly Occupied:                                                      

       1A   -354.058905     2A    -45.101774     3A    -39.668989  
       4A    -39.668983     5A    -39.668978     6A     -6.380459  
       7A     -4.590407     8A     -4.590403     9A     -4.590402  
      10A     -1.533892    11A     -1.533891    12A     -1.533882  
      13A     -1.533880    14A     -1.533879  

    Virtual:                                                              

      15A     -0.605414    16A     -0.408069    17A     -0.408051  
      18A     -0.408038    19A     -0.245763    20A     -0.213102  
      21A     -0.212870    22A     -0.212259    23A     -0.211060  
      24A     -0.210627    25A     -0.189681    26A     -0.189517  
      27A     -0.189407    28A     -0.130577    29A     -0.119538  
      30A     -0.119007    31A     -0.118174    32A     -0.117860  
      33A     -0.116682    34A     -0.116176    35A     -0.115094  
      36A     -0.113851    37A     -0.107743    38A     -0.102314  
      39A     -0.101360    40A     -0.099997    41A     -0.097813  
      42A     -0.096682    43A     -0.095404    44A     -0.073244  
      45A     -0.072327    46A     -0.067552    47A     -0.066481  
      48A     -0.065257    49A     -0.063195    50A     -0.060798  
      51A     -0.059052    52A     -0.056845    53A     -0.054354  
      54A     -0.050557    55A     -0.046923    56A     -0.042495  
      57A     -0.040591    58A     -0.038497    59A     -0.036662  
      60A     -0.034370    61A     -0.034312    62A     -0.028939  
      63A     -0.027094    64A     -0.026172    65A     -0.024079  
      66A     -0.019895    67A     -0.018581    68A     -0.016417  
      69A     -0.013984    70A     -0.012327    71A     -0.010232  
      72A     -0.006796    73A     -0.005858    74A     -0.003544  
      75A     -0.000912    76A      0.002564    77A      0.003064  
      78A      0.006597    79A      0.006887    80A      0.008182  
      81A      0.010507    82A      0.012531    83A      0.015934  
      84A      0.017949    85A      0.020210    86A      0.022218  
      87A      0.023591    88A      0.026746    89A      0.028824  
      90A      0.029450    91A      0.032557    92A      0.034272  
      93A      0.035854    94A      0.036283    95A      0.040572  
      96A      0.042314    97A      0.044436    98A      0.048596  
      99A      0.051115   100A      0.053148   101A      0.056166  
     102A      0.057821   103A      0.059209   104A      0.061269  
     105A      0.064024   106A      0.065923   107A      0.067775  
     108A      0.071398   109A      0.072831   110A      0.074653  
     111A      0.079549   112A      0.081434   113A      0.082642  
     114A      0.083006   115A      0.087340   116A      0.088872  
     117A      0.089503   118A      0.093426   119A      0.095145  
     120A      0.097370   121A      0.102518   122A      0.105995  
     123A      0.107681   124A      0.111653   125A      0.113296  
     126A      0.115736   127A      0.120153   128A      0.122086  
     129A      0.122915   130A      0.124050   131A      0.129106  
     132A      0.131575   133A      0.132661   134A      0.133500  
     135A      0.137999   136A      0.143534   137A      0.144429  
     138A      0.147900   139A      0.151476   140A      0.154630  
     141A      0.156781   142A      0.158083   143A      0.160349  
     144A      0.164026   145A      0.166463   146A      0.166696  
     147A      0.170708   148A      0.171074   149A      0.173148  
     150A      0.175393   151A      0.179562   152A      0.181223  
     153A      0.182645   154A      0.187642   155A      0.188057  
     156A      0.191660   157A      0.192657   158A      0.197187  
     159A      0.197503   160A      0.201795   161A      0.203200  
     162A      0.204576   163A      0.206688   164A      0.209942  
     165A      0.212179   166A      0.215498   167A      0.218235  
     168A      0.220544   169A      0.221987   170A      0.224951  
     171A      0.227285   172A      0.228805   173A      0.230026  
     174A      0.231819   175A      0.233357   176A      0.238545  
     177A      0.241159   178A      0.244954   179A      0.247040  
     180A      0.248622   181A      0.249678   182A      0.251498  
     183A      0.254720   184A      0.258224   185A      0.261807  
     186A      0.263562   187A      0.265452   188A      0.267855  
     189A      0.270574   190A      0.272666   191A      0.273946  
     192A      0.279400   193A      0.279709   194A      0.282593  
     195A      0.283708   196A      0.288085   197A      0.289991  
     198A      0.290566   199A      0.294357   200A      0.297114  
     201A      0.300429   202A      0.300782   203A      0.302067  
     204A      0.305754   205A      0.309700   206A      0.310499  
     207A      0.315265   208A      0.316423   209A      0.320177  
     210A      0.322968   211A      0.325354   212A      0.328387  
     213A      0.330783   214A      0.335436   215A      0.336450  
     216A      0.339888   217A      0.341828   218A      0.343642  
     219A      0.347322   220A      0.348897   221A      0.356527  
     222A      0.356964   223A      0.361109   224A      0.364517  
     225A      0.366133   226A      0.368274   227A      0.372945  
     228A      0.375218   229A      0.376675   230A      0.379080  
     231A      0.380282   232A      0.387152   233A      0.387951  
     234A      0.392189   235A      0.394099   236A      0.400485  
     237A      0.407287   238A      0.408392   239A      0.410995  
     240A      0.413218   241A      0.419825   242A      0.422986  
     243A      0.423779   244A      0.426042   245A      0.430615  
     246A      0.433674   247A      0.436425   248A      0.438086  
     249A      0.440786   250A      0.443679   251A      0.447707  
     252A      0.448447   253A      0.451347   254A      0.456747  
     255A      0.458889   256A      0.459775   257A      0.463534  
     258A      0.466509   259A      0.468122   260A      0.471253  
     261A      0.473596   262A      0.477913   263A      0.478708  
     264A      0.482164   265A      0.484362   266A      0.487032  
     267A      0.493204   268A      0.494343   269A      0.497322  
     270A      0.501253   271A      0.502830   272A      0.505479  
     273A      0.507841   274A      0.510224   275A      0.512624  
     276A      0.515178   277A      0.517878   278A      0.522286  
     279A      0.523624   280A      0.528129   281A      0.529681  
     282A      0.533507   283A      0.534166   284A      0.540237  
     285A      0.542794   286A      0.543788   287A      0.548074  
     288A      0.549738   289A      0.550590   290A      0.554196  
     291A      0.556299   292A      0.560238   293A      0.561814  
     294A      0.563455   295A      0.564823   296A      0.567840  
     297A      0.570275   298A      0.572911   299A      0.577269  
     300A      0.577799   301A      0.579882   302A      0.584305  
     303A      0.587326   304A      0.590473   305A      0.592384  
     306A      0.594504   307A      0.597465   308A      0.598252  
     309A      0.601726   310A      0.603240   311A      0.605246  
     312A      0.609136   313A      0.612803   314A      0.613045  
     315A      0.616436   316A      0.619303   317A      0.620933  
     318A      0.622931   319A      0.626448   320A      0.630120  
     321A      0.631507   322A      0.638232   323A      0.641078  
     324A      0.642969   325A      0.645094   326A      0.648534  
     327A      0.652859   328A      0.654021   329A      0.656418  
     330A      0.662035   331A      0.663557   332A      0.665286  
     333A      0.668146   334A      0.670723   335A      0.671028  
     336A      0.675289   337A      0.680800   338A      0.682915  
     339A      0.687506   340A      0.690113   341A      0.690825  
     342A      0.697299   343A      0.700369   344A      0.704475  
     345A      0.711404   346A      0.713177   347A      0.721023  
     348A      0.723036   349A      0.723814   350A      0.728457  
     351A      0.732871   352A      0.737534   353A      0.742531  
     354A      0.745489   355A      0.746405   356A      0.751259  
     357A      0.754137   358A      0.756223   359A      0.760815  
     360A      0.764354   361A      0.767500   362A      0.769569  
     363A      0.774468   364A      0.777011   365A      0.780492  
     366A      0.782332   367A      0.789091   368A      0.792209  
     369A      0.795677   370A      0.799064   371A      0.804848  
     372A      0.807128   373A      0.812710   374A      0.815686  
     375A      0.819223   376A      0.821981   377A      0.826767  
     378A      0.827382   379A      0.833922   380A      0.834329  
     381A      0.841516   382A      0.845975   383A      0.850161  
     384A      0.856320   385A      0.860758   386A      0.864099  
     387A      0.866726   388A      0.872465   389A      0.875092  
     390A      0.879563   391A      0.881254   392A      0.887626  
     393A      0.891825   394A      0.895956   395A      0.901553  
     396A      0.904498   397A      0.907390   398A      0.907987  
     399A      0.915891   400A      0.917254   401A      0.919152  
     402A      0.923332   403A      0.924509   404A      0.929394  
     405A      0.931053   406A      0.939181   407A      0.940697  
     408A      0.943416   409A      0.945452   410A      0.952574  
     411A      0.956237   412A      0.957993   413A      0.959878  
     414A      0.963153   415A      0.965365   416A      0.970155  
     417A      0.973782   418A      0.977551   419A      0.981280  
     420A      0.983805   421A      0.984933   422A      0.986242  
     423A      0.994933   424A      0.995657   425A      0.999280  
     426A      1.003469   427A      1.004168   428A      1.009250  
     429A      1.010758   430A      1.016150   431A      1.019001  
     432A      1.020620   433A      1.025254   434A      1.026592  
     435A      1.030868   436A      1.033867   437A      1.036435  
     438A      1.038726   439A      1.043874   440A      1.046784  
     441A      1.049356   442A      1.050207   443A      1.059586  
     444A      1.060852   445A      1.063489   446A      1.068286  
     447A      1.070011   448A      1.073062   449A      1.076868  
     450A      1.081110   451A      1.085913   452A      1.086609  
     453A      1.091408   454A      1.092864   455A      1.100291  
     456A      1.102000   457A      1.105764   458A      1.107199  
     459A      1.110665   460A      1.111679   461A      1.116372  
     462A      1.118383   463A      1.124091   464A      1.128521  
     465A      1.129524   466A      1.134889   467A      1.135878  
     468A      1.140451   469A      1.144348   470A      1.145809  
     471A      1.149353   472A      1.151768   473A      1.152496  
     474A      1.157369   475A      1.159076   476A      1.162603  
     477A      1.164259   478A      1.166670   479A      1.171424  
     480A      1.174333   481A      1.174814   482A      1.179324  
     483A      1.184017   484A      1.184526   485A      1.186628  
     486A      1.192182   487A      1.197868   488A      1.199429  
     489A      1.204439   490A      1.206307   491A      1.209676  
     492A      1.210426   493A      1.214793   494A      1.222016  
     495A      1.224004   496A      1.225104   497A      1.228857  
     498A      1.230915   499A      1.233570   500A      1.234616  
     501A      1.240298   502A      1.242627   503A      1.248209  
     504A      1.248547   505A      1.253883   506A      1.257005  
     507A      1.261854   508A      1.267338   509A      1.268633  
     510A      1.275840   511A      1.277212   512A      1.280477  
     513A      1.285016   514A      1.286930   515A      1.289228  
     516A      1.293727   517A      1.295150   518A      1.296499  
     519A      1.301250   520A      1.305088   521A      1.306195  
     522A      1.312288   523A      1.314629   524A      1.318398  
     525A      1.321134   526A      1.327029   527A      1.328427  
     528A      1.332260   529A      1.336885   530A      1.339762  
     531A      1.343294   532A      1.346487   533A      1.349704  
     534A      1.353297   535A      1.354913   536A      1.363191  
     537A      1.365569   538A      1.370899   539A      1.372057  
     540A      1.373602   541A      1.377369   542A      1.379208  
     543A      1.382739   544A      1.387268   545A      1.391408  
     546A      1.393767   547A      1.398953   548A      1.402514  
     549A      1.405678   550A      1.407547   551A      1.415355  
     552A      1.416980   553A      1.420208   554A      1.425135  
     555A      1.427264   556A      1.431215   557A      1.438401  
     558A      1.440740   559A      1.445729   560A      1.449338  
     561A      1.452830   562A      1.455238   563A      1.455422  
     564A      1.458389   565A      1.462294   566A      1.463664  
     567A      1.466690   568A      1.469811   569A      1.474531  
     570A      1.476721   571A      1.483947   572A      1.486017  
     573A      1.487965   574A      1.493540   575A      1.499626  
     576A      1.500185   577A      1.503217   578A      1.504905  
     579A      1.509662   580A      1.511652   581A      1.517698  
     582A      1.520454   583A      1.523680   584A      1.528614  
     585A      1.532900   586A      1.535314   587A      1.536895  
     588A      1.543287   589A      1.545107   590A      1.547706  
     591A      1.550886   592A      1.554517   593A      1.556008  
     594A      1.559885   595A      1.568478   596A      1.570863  
     597A      1.573257   598A      1.576071   599A      1.580163  
     600A      1.584711   601A      1.589149   602A      1.592157  
     603A      1.598950   604A      1.602402   605A      1.605722  
     606A      1.610412   607A      1.619284   608A      1.622269  
     609A      1.630304   610A      1.634181   611A      1.636774  
     612A      1.639741   613A      1.646802   614A      1.653786  
     615A      1.654365   616A      1.663297   617A      1.665753  
     618A      1.671553   619A      1.676074   620A      1.684709  
     621A      1.685855   622A      1.696691   623A      1.703313  
     624A      1.706374   625A      1.708627   626A      1.715406  
     627A      1.717912   628A      1.720085   629A      1.726426  
     630A      1.733586   631A      1.742484   632A      1.742962  
     633A      1.749829   634A      1.754649   635A      1.758122  
     636A      1.762845   637A      1.767238   638A      1.775052  
     639A      1.779469   640A      1.789017   641A      1.793173  
     642A      1.794428   643A      1.804738   644A      1.809894  
     645A      1.817171   646A      1.822001   647A      1.824874  
     648A      1.833002   649A      1.839073   650A      1.845772  
     651A      1.847616   652A      1.854828   653A      1.863442  
     654A      1.869787   655A      1.872411   656A      1.874451  
     657A      1.881688   658A      1.894573   659A      1.896823  
     660A      1.899980   661A      1.909900   662A      1.916219  
     663A      1.923978   664A      1.928090   665A      1.930722  
     666A      1.945173   667A      1.949962   668A      1.953330  
     669A      1.958216   670A      1.963902   671A      1.965718  
     672A      1.977753   673A      1.982880   674A      1.983595  
     675A      1.988835   676A      1.992724   677A      1.996720  
     678A      2.003090   679A      2.014561   680A      2.015447  
     681A      2.018236   682A      2.023017   683A      2.024257  
     684A      2.037943   685A      2.039550   686A      2.040796  
     687A      2.049064   688A      2.052068   689A      2.055121  
     690A      2.058693   691A      2.064519   692A      2.068261  
     693A      2.069435   694A      2.076211   695A      2.087554  
     696A      2.095673   697A      2.098566   698A      2.104938  
     699A      2.109778   700A      2.115249   701A      2.121622  
     702A      2.123600   703A      2.126488   704A      2.132603  
     705A      2.138305   706A      2.139478   707A      2.142816  
     708A      2.145548   709A      2.152888   710A      2.155950  
     711A      2.157588   712A      2.161412   713A      2.171208  
     714A      2.175867   715A      2.179448   716A      2.180636  
     717A      2.183613   718A      2.190717   719A      2.193408  
     720A      2.195066   721A      2.198078   722A      2.200096  
     723A      2.208232   724A      2.209250   725A      2.219297  
     726A      2.220342   727A      2.226847   728A      2.231326  
     729A      2.234707   730A      2.240898   731A      2.244072  
     732A      2.246870   733A      2.250161   734A      2.257901  
     735A      2.259426   736A      2.267302   737A      2.268030  
     738A      2.271108   739A      2.279237   740A      2.283155  
     741A      2.285300   742A      2.286604   743A      2.300634  
     744A      2.305560   745A      2.311794   746A      2.313375  
     747A      2.314671   748A      2.320293   749A      2.323961  
     750A      2.330447   751A      2.342774   752A      2.343729  
     753A      2.351237   754A      2.353144   755A      2.355285  
     756A      2.360488   757A      2.361486   758A      2.371464  
     759A      2.373344   760A      2.378399   761A      2.381220  
     762A      2.384454   763A      2.396256   764A      2.399898  
     765A      2.400430   766A      2.408075   767A      2.412755  
     768A      2.414400   769A      2.419188   770A      2.423399  
     771A      2.428588   772A      2.434013   773A      2.443526  
     774A      2.448720   775A      2.452452   776A      2.459132  
     777A      2.460026   778A      2.470013   779A      2.472861  
     780A      2.475939   781A      2.479779   782A      2.480264  
     783A      2.485066   784A      2.498717   785A      2.502662  
     786A      2.508223   787A      2.515338   788A      2.523186  
     789A      2.525505   790A      2.528412   791A      2.539819  
     792A      2.549855   793A      2.551681   794A      2.561981  
     795A      2.564602   796A      2.571569   797A      2.581637  
     798A      2.586303   799A      2.587231   800A      2.599878  
     801A      2.605806   802A      2.607591   803A      2.614633  
     804A      2.621723   805A      2.628276   806A      2.631243  
     807A      2.635257   808A      2.652160   809A      2.658056  
     810A      2.661173   811A      2.667094   812A      2.670301  
     813A      2.674858   814A      2.679734   815A      2.697063  
     816A      2.699555   817A      2.709214   818A      2.714708  
     819A      2.715407   820A      2.728420   821A      2.732968  
     822A      2.736635   823A      2.749885   824A      2.753247  
     825A      2.755885   826A      2.757938   827A      2.764713  
     828A      2.774881   829A      2.781362   830A      2.788630  
     831A      2.791386   832A      2.795636   833A      2.803944  
     834A      2.808733   835A      2.810459   836A      2.821125  
     837A      2.833571   838A      2.847234   839A      2.851896  
     840A      2.862416   841A      2.865971   842A      2.876166  
     843A      2.889003   844A      2.894806   845A      2.912897  
     846A      2.920197   847A      2.928364   848A      2.938359  
     849A      2.946839   850A      2.957209   851A      2.968178  
     852A      2.972973   853A      2.991798   854A      2.997228  
     855A      3.008772   856A      3.011846   857A      3.019118  
     858A      3.036282   859A      3.054947   860A      3.069199  
     861A      3.083054   862A      3.086062   863A      3.096775  
     864A      3.110892   865A      3.123576   866A      3.134848  
     867A      3.145946   868A      3.162957   869A      3.167055  
     870A      3.177057   871A      3.191772   872A      3.209638  
     873A      3.227741   874A      3.244832   875A      3.267031  
[...]
    1019A      3.862880  1020A      3.871805  1021A      3.874641  
    1022A      3.878488  1023A      3.881709  1024A      3.885536  
    1025A      3.889644  1026A      3.898561  1027A      3.900565  
    1028A      3.904874  1029A      3.913490  1030A      3.919707  
    1031A      3.921368  1032A      3.931787  1033A      3.937367  
    1034A      3.940152  1035A      3.946611  1036A      3.949757  
    1037A      3.957593  1038A      3.961556  1039A      3.966461  
    1040A      3.973695  1041A      3.977802  1042A      3.981715  
    1043A      3.989090  1044A      3.992348  1045A      3.992651  
    1046A      3.995610  1047A      4.003326  1048A      4.009449  
    1049A      4.015548  1050A      4.016728  1051A      4.019633  
    1052A      4.024622  1053A      4.031431  1054A      4.032710  
    1055A      4.040552  1056A      4.041863  1057A      4.049380  
    1058A      4.052235  1059A      4.054355  1060A      4.056915  
    1061A      4.062367  1062A      4.067835  1063A      4.075769  
    1064A      4.082498  1065A      4.094372  1066A      4.096337  
    1067A      4.101910  1068A      4.107327  1069A      4.112138  
    1070A      4.120383  1071A      4.126036  1072A      4.134375  
    1073A      4.139336  1074A      4.144743  1075A      4.146330  
    1076A      4.148464  1077A      4.159577  1078A      4.161230  
    1079A      4.164335  1080A      4.166627  1081A      4.171846  
    1082A      4.181545  1083A      4.185634  1084A      4.193298  
    1085A      4.195191  1086A      4.199150  1087A      4.203167  
    1088A      4.208552  1089A      4.217846  1090A      4.218844  
    1091A      4.228536  1092A      4.231421  1093A      4.253198  
    1094A      4.255630  1095A      4.257124  1096A      4.262858  
    1097A      4.267299  1098A      4.277082  1099A      4.280070  
    1100A      4.284122  1101A      4.287640  1102A      4.293689  
    1103A      4.296404  1104A      4.298818  1105A      4.302379  
    1106A      4.308967  1107A      4.316702  1108A      4.327518  
    1109A      4.332507  1110A      4.333399  1111A      4.339146  
    1112A      4.343557  1113A      4.346940  1114A      4.356722  
    1115A      4.368125  1116A      4.370192  1117A      4.372199  
    1118A      4.378690  1119A      4.383696  1120A      4.392876  
    1121A      4.398359  1122A      4.399662  1123A      4.401825  
    1124A      4.404278  1125A      4.409116  1126A      4.423626  
    1127A      4.425995  1128A      4.429505  1129A      4.435582  
    1130A      4.436955  1131A      4.442012  1132A      4.449424  
    1133A      4.454041  1134A      4.454462  1135A      4.458330  
    1136A      4.466006  1137A      4.472442  1138A      4.474562  
    1139A      4.476649  1140A      4.477868  1141A      4.482374  
    1142A      4.486529  1143A      4.491583  1144A      4.497824  
    1145A      4.505564  1146A      4.509245  1147A      4.511763  
    1148A      4.514526  1149A      4.519848  1150A      4.527834  
    1151A      4.533447  1152A      4.543130  1153A      4.547439  
    1154A      4.550512  1155A      4.560129  1156A      4.566503  
    1157A      4.576267  1158A      4.583866  1159A      4.594353  
    1160A      4.599359  1161A      4.607073  1162A      4.618519  
    1163A      4.627070  1164A      4.635572  1165A      4.643461  
    1166A      4.646805  1167A      4.660299  1168A      4.663535  
    1169A      4.667523  1170A      4.681092  1171A      4.686346  
    1172A      4.691371  1173A      4.704645  1174A      4.709397  
    1175A      4.712641  1176A      4.717348  1177A      4.721891  
    1178A      4.722252  1179A      4.727344  1180A      4.736977  
    1181A      4.741240  1182A      4.745321  1183A      4.747253  
    1184A      4.755593  1185A      4.768685  1186A      4.777828  
    1187A      4.778351  1188A      4.788914  1189A      4.791427  
    1190A      4.796059  1191A      4.799798  1192A      4.804000  
    1193A      4.817201  1194A      4.826889  1195A      4.832558  
    1196A      4.841437  1197A      4.847084  1198A      4.851062  
    1199A      4.857975  1200A      4.870703  1201A      4.875948  
    1202A      4.890022  1203A      4.901761  1204A      4.909540  
    1205A      4.914462  1206A      4.919035  1207A      4.930955  
    1208A      4.935969  1209A      4.942620  1210A      4.954656  
    1211A      4.960277  1212A      4.975510  1213A      4.975558  
    1214A      4.981504  1215A      4.989069  1216A      4.994626  
    1217A      4.999880  1218A      5.005756  1219A      5.009658  
    1220A      5.019224  1221A      5.027689  1222A      5.035247  
    1223A      5.042585  1224A      5.054084  1225A      5.059603  
    1226A      5.068102  1227A      5.075606  1228A      5.081821  
    1229A      5.094671  1230A      5.103603  1231A      5.106849  
    1232A      5.111434  1233A      5.112847  1234A      5.120083  
    1235A      5.125523  1236A      5.128585  1237A      5.136637  
    1238A      5.137877  1239A      5.146904  1240A      5.150533  
    1241A      5.158438  1242A      5.164185  1243A      5.166697  
    1244A      5.171214  1245A      5.174227  1246A      5.182077  
    1247A      5.186404  1248A      5.187035  1249A      5.194495  
    1250A      5.202790  1251A      5.204674  1252A      5.217922  
    1253A      5.223044  1254A      5.229117  1255A      5.236322  
    1256A      5.238662  1257A      5.250207  1258A      5.258067  
    1259A      5.264565  1260A      5.285139  1261A      5.292527  
    1262A      5.296050  1263A      5.306661  1264A      5.310990  
    1265A      5.323106  1266A      5.329747  1267A      5.332607  
    1268A      5.337380  1269A      5.345730  1270A      5.350049  
    1271A      5.358922  1272A      5.366154  1273A      5.375060  
    1274A      5.384486  1275A      5.389859  1276A      5.400548  
    1277A      5.414005  1278A      5.421260  1279A      5.425459  
    1280A      5.439705  1281A      5.440719  1282A      5.450039  
    1283A      5.458577  1284A      5.465954  1285A      5.476864  
    1286A      5.486959  1287A      5.500736  1288A      5.512218  
    1289A      5.522488  1290A      5.538466  1291A      5.557554  
    1292A      5.559348  1293A      5.566711  1294A      5.576916  
    1295A      5.591877  1296A      5.605219  1297A      5.617942  
    1298A      5.648812  1299A      5.653696  1300A      5.660464  
    1301A      5.678681  1302A      5.684529  1303A      5.704014  
    1304A      5.724825  1305A      5.730916  1306A      5.753236  
    1307A      5.756995  1308A      5.780849  1309A      5.787509  
    1310A      5.798258  1311A      5.810128  1312A      5.812235  
    1313A      5.821581  1314A      5.832966  1315A      5.838753  
    1316A      5.848562  1317A      5.870271  1318A      5.881265  
    1319A      5.896423  1320A      5.911375  1321A      5.924593  
    1322A      5.959291  1323A      5.974619  1324A      6.007816  
    1325A      6.049575  1326A      6.063479  1327A      6.090930  
    1328A      6.107445  1329A      6.113626  1330A      6.142561  
    1331A      6.159287  1332A      6.183204  1333A      6.188645  
    1334A      6.199594  1335A      6.221163  1336A      6.234265  
    1337A      6.248656  1338A      6.259454  1339A      6.269682  
    1340A      6.280137  1341A      6.297575  1342A      6.309588  
    1343A      6.317842  1344A      6.328976  1345A      6.350388  
    1346A      6.380555  1347A      6.385178  1348A      6.389651  
    1349A      6.397650  1350A      6.399677  1351A      6.430139  
    1352A      6.438953  1353A      6.467311  1354A      6.492173  
    1355A      6.509390  1356A      6.516328  1357A      6.525076  
    1358A      6.537424  1359A      6.586465  1360A      6.604577  
    1361A      6.622297  1362A      6.636401  1363A      6.663830  
    1364A      6.683053  1365A      6.759664  1366A      6.772123  
    1367A      6.786606  1368A      6.790387  1369A      6.901018  
    1370A      6.913770  1371A      6.919571  1372A      6.924748  
    1373A      6.952936  1374A      6.986375  1375A      7.010021  
    1376A      7.016061  1377A      7.019113  1378A      7.046327  
    1379A      7.068322  1380A      7.082403  1381A      7.152905  
    1382A      7.166010  1383A      7.171539  1384A      7.225300  
    1385A      7.295128  1386A      7.328563  1387A      7.340995  
    1388A      7.364099  1389A      7.389585  1390A      7.399007  
    1391A      7.460024  1392A      7.613524  1393A      7.637955  
    1394A      7.756966  1395A      7.843306  1396A      7.861167  
    1397A      7.881250  1398A      7.923194  1399A      7.952883  
    1400A      7.975056  1401A      8.021611  1402A      8.087720  
    1403A      8.140614  1404A      8.158050  1405A      8.193303  
    1406A      8.272576  1407A      8.402788  1408A      9.093663  
    1409A      9.492948  1410A      9.493985  1411A      9.500884  
    1412A      9.517982  1413A      9.521053  1414A      9.532072  
    1415A      9.605634  1416A      9.634850  1417A      9.676009  
    1418A     10.354362  1419A     10.379140  1420A     10.510490  
    1421A     10.660635  1422A     10.858005  1423A     13.159986  
    1424A     13.277557  1425A     13.669409  1426A     16.042051  
    1427A     16.235883  1428A     16.346764  1429A     16.468072  
    1430A     16.646848  1431A     16.905772  1432A     17.487637  
    1433A     17.700721  1434A     18.963635  1435A     19.162382  
    1436A     19.202563  1437A     19.397411  1438A     19.509246  
    1439A     19.800762  1440A     20.068459  1441A     20.207933  
    1442A     20.402827  1443A     20.674653  1444A     21.140143  
    1445A     21.590037  1446A     22.097658  1447A     22.712394  
    1448A     26.763694  1449A     26.763887  1450A     26.767169  
    1451A     26.773408  1452A     26.774990  1453A     26.780224  
    1454A     26.811828  1455A     26.817153  1456A     26.856125  
    1457A     28.756061  1458A     28.769785  1459A     28.799401  
    1460A     28.858207  1461A     28.880660  1462A     28.897200  
    1463A     28.985545  1464A     37.485476  1465A     42.143373  
    1466A     42.173045  1467A     42.363470  1468A     42.570274  
    1469A     42.755011  1470A    103.643498  1471A    103.792151  
    1472A    104.273155  1473A    519.719511  

    Final Occupation by Irrep:
              A 
    DOCC [    76 ]

  @DF-RHF Final Energy:  -912.90007046719950

   => Energetics <=

    Nuclear Repulsion Energy =           1576.0646946334472887
    One-Electron Energy =               -4370.8790792063136905
    Two-Electron Energy =                1881.9143141056667901
    Total Energy =                       -912.9000704671996118

Computation Completed


Properties will be evaluated at   0.000000,   0.000000,   0.000000 [a0]

Properties computed using the SCF density matrix

  Nuclear Dipole Moment: [e a0]
     X:  -131.1227      Y:  -191.4427      Z:   -27.8260

  Electronic Dipole Moment: [e a0]
     X:   131.6375      Y:   190.1718      Z:    26.6746

  Dipole Moment: [e a0]
     X:     0.5148      Y:    -1.2709      Z:    -1.1514     Total:     1.7906

  Dipole Moment: [D]
     X:     1.3085      Y:    -3.2304      Z:    -2.9267     Total:     4.5512


*** tstop() called on master at Thu Jan 13 12:59:20 2022
Module time:
	user time   =    6171.86 seconds =     102.86 minutes
	system time =    2124.29 seconds =      35.40 minutes
	total time  =        578 seconds =       9.63 minutes
Total time:
	user time   =   22502.05 seconds =     375.03 minutes
	system time =   12393.82 seconds =     206.56 minutes
	total time  =       2394 seconds =      39.90 minutes
  Constructing Basis Sets for SAPT...

   => Loading Basis Set <=

    Name: (AUG-CC-PVTZ AUX)
    Role: RIFIT
    Keyword: DF_BASIS_SAPT
    atoms 1              entry ZN         line  2602 file /public/gkxiao/software/anaconda3/envs/psi4/share/psi4/basis/def2-qzvpp-ri.gbs 
    atoms 2, 9           entry N          line   206 file /public/gkxiao/software/anaconda3/envs/psi4/share/psi4/basis/aug-cc-pvtz-ri.gbs 
    atoms 3-8, 10, 12-23 entry C          line   148 file /public/gkxiao/software/anaconda3/envs/psi4/share/psi4/basis/aug-cc-pvtz-ri.gbs 
    atoms 11             entry O          line   264 file /public/gkxiao/software/anaconda3/envs/psi4/share/psi4/basis/aug-cc-pvtz-ri.gbs 
    atoms 24-39          entry H          line    30 file /public/gkxiao/software/anaconda3/envs/psi4/share/psi4/basis/aug-cc-pvtz-ri.gbs 


  //>>>>>>>>>>>>>>>>>>>>>>>>>>>>>>>>>>>//
  //               SAPT0               //
  //<<<<<<<<<<<<<<<<<<<<<<<<<<<<<<<<<<<//


*** tstart() called on master
*** at Thu Jan 13 12:59:21 2022

        SAPT0  
    Ed Hohenstein
     6 June 2009

      Orbital Information
  --------------------------
    NSO        =      1473
    NMO        =      1473
    NRI        =      3384
    NOCC A     =        14
    NOCC B     =        76
    FOCC A     =         9
    FOCC B     =        22
    NVIR A     =      1459
    NVIR B     =      1397

    Elst10,r            =    -0.162478768768 [Eh]
    Exch10              =     0.049974420111 [Eh]
    Exch10 (S^2)        =     0.049662494454 [Eh]

    Iter     Energy [mEh]          dE [mEh]         Residual      Time [s]
       1      -1.11922916       1.119229158      11.070325068           221
       2      -1.16234022       0.043111061       3.836798484           378
       3      -1.22870083       0.066360611       1.239173447           491
       4      -1.23549828       0.006797446       0.361203039           535
       5      -1.23145805      -0.004040230       0.056254627           571
       6      -1.23190076       0.000442709       0.015643719           606
       7      -1.23189098      -0.000009779       0.002645529           641
       8      -1.23188190      -0.000009080       0.000431896           677
       9      -1.23188433       0.000002438       0.000049287           710
      10      -1.23188405      -0.000000281       0.000005991           742
      11      -1.23188407       0.000000012       0.000001581           777
      12      -1.23188407       0.000000002       0.000000187           815

    CHF Iterations converged


    Iter     Energy [mEh]          dE [mEh]         Residual      Time [s]
       1    -340.78141354     340.781413541     154.918418412           255
       2    -356.08251066      15.301097119      61.898670382           520
       3    -397.78292526      41.700414605      22.728397801           711
       4    -400.98711860       3.204193339       9.071456564           780
       5    -398.88709647      -2.100022138       5.699997451           817
       6    -398.21559802      -0.671498448       2.309643720           852
       7    -398.70514441       0.489546392       1.050693464           886
       8    -398.80309139       0.097946980       0.344192830           918
       9    -398.76666587      -0.036425523       0.158051919           955
      10    -398.74866427      -0.018001593       0.060968832           991
      11    -398.75191360       0.003249322       0.028945811          1027
      12    -398.75542689       0.003513298       0.011962461          1063
      13    -398.75495080      -0.000476089       0.004621994          1096
      14    -398.75445216      -0.000498643       0.001996912          1131
      15    -398.75447553       0.000023369       0.000841791          1167
      16    -398.75455390       0.000078365       0.000381036          1202
      17    -398.75455304      -0.000000858       0.000136816          1238
      18    -398.75454194      -0.000011094       0.000052629          1275
      19    -398.75454086      -0.000001086       0.000017211          1311
      20    -398.75454200       0.000001145       0.000006976          1346
      21    -398.75454231       0.000000308       0.000002853          1381
      22    -398.75454213      -0.000000183       0.000001375          1419
      23    -398.75454208      -0.000000043       0.000000577          1456

    CHF Iterations converged

    Ind20,r (A<-B)      =    -0.001231884068 [Eh]
    Ind20,r (B<-A)      =    -0.398754542084 [Eh]
    Ind20,r             =    -0.399986426152 [Eh]
    Exch-Ind20,r (A<-B) =     0.000711757103 [Eh]
    Exch-Ind20,r (B<-A) =     0.218144291311 [Eh]
    Exch-Ind20,r        =     0.218856048413 [Eh]
    Disp20              =    -0.010565486972 [Eh]
    Disp20 (SS)         =    -0.005282743486 [Eh]
    Disp20 (OS)         =    -0.005282743486 [Eh]
    Exch-Disp20         =     0.001595307860 [Eh]
    Exch-Disp20 (SS)    =     0.000637498448 [Eh]
    Exch-Disp20 (OS)    =     0.000957809411 [Eh]

    SAPT Results 
  --------------------------------------------------------------------------------------------------------
    Electrostatics               -162.47876877 [mEh]    -101.95696669 [kcal/mol]    -426.58794863 [kJ/mol]
      Elst10,r                   -162.47876877 [mEh]    -101.95696669 [kcal/mol]    -426.58794863 [kJ/mol]

    Exchange                       49.97442011 [mEh]      31.35942207 [kcal/mol]     131.20782193 [kJ/mol]
      Exch10                       49.97442011 [mEh]      31.35942207 [kcal/mol]     131.20782193 [kJ/mol]
      Exch10(S^2)                  49.66249445 [mEh]      31.16368576 [kcal/mol]     130.38886123 [kJ/mol]

    Induction                    -192.88830752 [mEh]    -121.03924035 [kcal/mol]    -506.42818163 [kJ/mol]
      Ind20,r                    -399.98642615 [mEh]    -250.99527179 [kcal/mol]   -1050.16421718 [kJ/mol]
      Exch-Ind20,r                218.85604841 [mEh]     137.33424377 [kcal/mol]     574.60647595 [kJ/mol]
      delta HF,r (2)              -11.75792978 [mEh]      -7.37821233 [kcal/mol]     -30.87044039 [kJ/mol]

    Dispersion                     -8.97017911 [mEh]      -5.62887237 [kcal/mol]     -23.55120201 [kJ/mol]
      Disp20                      -10.56548697 [mEh]      -6.62994317 [kcal/mol]     -27.73968222 [kJ/mol]
      Exch-Disp20                   1.59530786 [mEh]       1.00107080 [kcal/mol]       4.18848021 [kJ/mol]
      Disp20 (SS)                  -5.28274349 [mEh]      -3.31497158 [kcal/mol]     -13.86984111 [kJ/mol]
      Disp20 (OS)                  -5.28274349 [mEh]      -3.31497158 [kcal/mol]     -13.86984111 [kJ/mol]
      Exch-Disp20 (SS)              0.63749845 [mEh]       0.40003632 [kcal/mol]       1.67375195 [kJ/mol]
      Exch-Disp20 (OS)              0.95780941 [mEh]       0.60103448 [kcal/mol]       2.51472826 [kJ/mol]

  Total HF                       -305.39265618 [mEh]    -191.63678497 [kcal/mol]    -801.80830833 [kJ/mol]
  Total SAPT0                    -314.36283529 [mEh]    -197.26565735 [kcal/mol]    -825.35951034 [kJ/mol]

  Special recipe for scaled SAPT0 (see Manual):
    Electrostatics sSAPT0        -162.47876877 [mEh]    -101.95696669 [kcal/mol]    -426.58794863 [kJ/mol]
    Exchange sSAPT0                49.97442011 [mEh]      31.35942207 [kcal/mol]     131.20782193 [kJ/mol]
    Induction sSAPT0             -188.73850637 [mEh]    -118.43520081 [kcal/mol]    -495.53288021 [kJ/mol]
    Dispersion sSAPT0              -8.93992996 [mEh]      -5.60989074 [kcal/mol]     -23.47178287 [kJ/mol]
  Total sSAPT0                   -310.18278499 [mEh]    -194.64263618 [kcal/mol]    -814.38478978 [kJ/mol]
  --------------------------------------------------------------------------------------------------------

*** tstop() called on master at Thu Jan 13 14:17:51 2022
Module time:
	user time   =   18605.28 seconds =     310.09 minutes
	system time =    2116.19 seconds =      35.27 minutes
	total time  =       4710 seconds =      78.50 minutes
Total time:
	user time   =   41107.82 seconds =     685.13 minutes
	system time =   14510.01 seconds =     241.83 minutes
	total time  =       7105 seconds =     118.42 minutes

    Psi4 stopped on: Thursday, 13 January 2022 02:17PM
    Psi4 wall time for execution: 1:58:27.00

*** Psi4 exiting successfully. Buy a developer a beer!
